 Gaussian 16, Revision B.01,
 Gaussian 16:  ES64L-G16RevB.01 20-Dec-2017

 ----------------------------------------------------------------------
 #p freq td=(nstates=10,root=4) cam-b3lyp/6-311+g(d,p) scrf=(solvent=wa
 ter,pcm) symm=loose
 ----------------------------------------------------------------------

 --------------------
 Thymine solvated ES4
 --------------------
 Symbolic Z-matrix:
 Charge =  0 Multiplicity = 1

                         Standard orientation:
 ---------------------------------------------------------------------
 Center     Atomic      Atomic             Coordinates (Angstroms)
 Number     Number       Type             X           Y           Z
 ---------------------------------------------------------------------
      1          7           0       -0.231165   -0.035141   -0.187654
      2          6           0        1.096368   -0.361997   -0.138091
      3          7           0        1.943485    0.693041    0.000329
      4          6           0        1.507124    1.988439    0.094046
      5          6           0        0.203040    2.318540    0.062719
      6          6           0       -0.757961    1.241995   -0.079486
      7          1           0       -0.888783   -0.813428   -0.333259
      8          8           0        1.493654   -1.526624   -0.212117
      9          1           0        2.937877    0.460731    0.032007
     10          1           0        2.289814    2.727806    0.199297
     11          8           0       -1.975809    1.412395   -0.108376
     12          6           0       -0.298919    3.723573    0.170889
     13          1           0       -0.877522    4.000626   -0.712721
     14          1           0       -0.955054    3.837803    1.036180
     15          1           0        0.531928    4.421320    0.272664
     16          8           0       -2.156963   -2.189392   -0.545540
     17          1           0        0.535019   -3.051632    0.413739
     18          8           0        4.219759   -1.004201    0.052340
     19          1           0       -3.350109    0.329651    0.141206
     20          1           0       -2.956623   -1.696600   -0.248786
     21          1           0       -2.337461   -2.493339   -1.441344
     22          8           0       -0.116053   -3.712336    0.699184
     23          1           0       -0.953794   -3.345363    0.374927
     24          1           0        3.437732   -1.554816   -0.124989
     25          1           0        4.871171   -1.226959   -0.619765
     26          8           0       -4.008523   -0.394844    0.189792
     27          1           0       -4.416871   -0.344382    1.059404
 ---------------------------------------------------------------------

 SCF Done:  E(RCAM-B3LYP) =  -759.890860891     A.U. after   14 cycles

 Excitation energies and oscillator strengths:

 Excited State   1:      Singlet-A      5.0347 eV  246.26 nm  f=0.3780  <S**2>=0.000
      53 -> 54         0.69708

 Excited State   2:      Singlet-A      5.5334 eV  224.06 nm  f=0.0001  <S**2>=0.000
      49 -> 54        -0.16849
      52 -> 54         0.63591
      52 -> 56         0.18810

 Excited State   3:      Singlet-A      6.2726 eV  197.66 nm  f=0.4069  <S**2>=0.000
      53 -> 56         0.69206

 Excited State   4:      Singlet-A      6.4811 eV  191.30 nm  f=0.0043  <S**2>=0.000
      53 -> 55         0.64782
      53 -> 57         0.10002
      53 -> 58        -0.12116
      53 -> 62        -0.19555
 This state for optimization and/or second-order correction.
 Total Energy, E(TD-HF/TD-DFT) =  -759.652684464
 Copying the excited state density for this state as the 1-particle RhoCI density.

 Excited State   5:      Singlet-A      6.7639 eV  183.30 nm  f=0.2203  <S**2>=0.000
      50 -> 54         0.50670
      51 -> 54        -0.45107

 Excited State   6:      Singlet-A      6.7900 eV  182.60 nm  f=0.0013  <S**2>=0.000
      47 -> 56         0.14550
      49 -> 54        -0.20994
      49 -> 56         0.43850
      52 -> 54        -0.13914
      52 -> 56         0.40577

 Excited State   7:      Singlet-A      7.1339 eV  173.80 nm  f=0.0028  <S**2>=0.000
      53 -> 57         0.62464
      53 -> 58         0.14178
      53 -> 60        -0.20251
      53 -> 62         0.10852

 Excited State   8:      Singlet-A      7.2536 eV  170.93 nm  f=0.0014  <S**2>=0.000
      53 -> 55         0.10836
      53 -> 57        -0.10207
      53 -> 58         0.64097
      53 -> 60         0.14039

 Excited State   9:      Singlet-A      7.3988 eV  167.57 nm  f=0.0010  <S**2>=0.000
      47 -> 54         0.11378
      49 -> 54         0.61117
      49 -> 56         0.13383
      52 -> 54         0.12423
      52 -> 56         0.20383

 Excited State  10:      Singlet-A      7.5158 eV  164.96 nm  f=0.1760  <S**2>=0.000
      50 -> 56        -0.29460
      51 -> 56         0.26971
      53 -> 59         0.53685

 The electronic state is 1-A.
 Alpha  occ. eigenvalues --  -19.21016 -19.20613 -19.20544 -19.19873 -19.19593
 Alpha  occ. eigenvalues --  -19.17490 -14.45664 -14.45096 -10.41842 -10.38600
 Alpha  occ. eigenvalues --  -10.32422 -10.27438 -10.24779  -1.18544  -1.15296
 Alpha  occ. eigenvalues --   -1.11202  -1.10210  -1.09565  -1.07898  -1.07002
 Alpha  occ. eigenvalues --   -1.02532  -0.91064  -0.80273  -0.76920  -0.75276
 Alpha  occ. eigenvalues --   -0.65771  -0.65397  -0.62831  -0.61930  -0.61378
 Alpha  occ. eigenvalues --   -0.60076  -0.58872  -0.57565  -0.55876  -0.53779
 Alpha  occ. eigenvalues --   -0.51778  -0.51004  -0.50075  -0.48221  -0.47884
 Alpha  occ. eigenvalues --   -0.47196  -0.46385  -0.45833  -0.44019  -0.43403
 Alpha  occ. eigenvalues --   -0.41109  -0.40342  -0.39903  -0.38465  -0.37390
 Alpha  occ. eigenvalues --   -0.37136  -0.36308  -0.31008
 Alpha virt. eigenvalues --   -0.00976   0.02635   0.03431   0.03887   0.04305
 Alpha virt. eigenvalues --    0.06050   0.06465   0.07121   0.07329   0.08949
 Alpha virt. eigenvalues --    0.09487   0.09852   0.10411   0.11410   0.12796

 Mulliken charges:
               1
     1  N   -0.507981
     2  C    0.481290
     3  N   -0.406504
     4  C   -0.305382
     5  C    0.714028
     6  C    0.001710
     7  H    0.439260
     8  O   -0.508716
     9  H    0.428947
    10  H    0.184959
    11  O   -0.436596
    12  C   -0.575396
    13  H    0.167501
    14  H    0.168580
    15  H    0.156694
    16  O   -0.709786
    17  H    0.326295
    18  O   -0.593985
    19  H    0.357321
    20  H    0.395293
    21  H    0.305880
    22  O   -0.679911
    23  H    0.349875
    24  H    0.296660
    25  H    0.305179
    26  O   -0.663903
    27  H    0.308686
 Sum of Mulliken charges =  -0.00000

 Dipole moment (field-independent basis, Debye):
    X=              2.5129    Y=              7.5757    Z=             -2.3615  Tot=              8.3236
 Quadrupole moment (field-independent basis, Debye-Ang):
   XX=            -69.9571   YY=            -95.7872   ZZ=            -77.4642
   XY=             10.9442   XZ=            -11.5466   YZ=             12.4380

  Exact polarizability:1187.795 -35.551 914.947 -10.066  26.972 838.167
 Approx polarizability: 154.522 -12.125 133.280   0.007   3.648  89.933

 ******    2 imaginary frequencies (negative Signs) ******

                      1                      2                      3
                      A                      A                      A
 Frequencies --   -179.7618               -75.0928                18.3521
 Red. masses --      1.0194                 4.5016                 5.0892
 Frc consts  --      0.0194                 0.0150                 0.0010
 IR Inten    --      2.1516                 3.9328                 6.4009

                      4                      5                      6
                      A                      A                      A
 Frequencies --     45.4009                58.3042                66.5243
 Red. masses --      5.4744                 5.0062                 5.4946
 Frc consts  --      0.0066                 0.0100                 0.0143
 IR Inten    --     16.4621                 8.4072                24.9557

                      7                      8                      9
                      A                      A                      A
 Frequencies --     83.2178               114.6505               119.8719
 Red. masses --      6.3113                 4.6713                 6.4775
 Frc consts  --      0.0258                 0.0362                 0.0548
 IR Inten    --     56.4935                 2.1731                16.5633

                     10                     11                     12
                      A                      A                      A
 Frequencies --    147.7916               156.1248               176.5990
 Red. masses --      2.7356                 2.4054                 4.0702
 Frc consts  --      0.0352                 0.0345                 0.0748
 IR Inten    --    162.7548                57.8440                49.4476

                     13                     14                     15
                      A                      A                      A
 Frequencies --    178.9854               189.7279               208.1431
 Red. masses --      5.0744                 3.9392                 5.6188
 Frc consts  --      0.0958                 0.0835                 0.1434
 IR Inten    --     10.9918                10.8857                12.6959

                     16                     17                     18
                      A                      A                      A
 Frequencies --    232.8546               269.9274               282.3058
 Red. masses --      1.1192                 1.1941                 5.2669
 Frc consts  --      0.0358                 0.0513                 0.2473
 IR Inten    --    203.2112               113.5310                21.3761

                     19                     20                     21
                      A                      A                      A
 Frequencies --    314.5822               323.9993               373.1022
 Red. masses --      1.1408                 3.1328                 1.3838
 Frc consts  --      0.0665                 0.1938                 0.1135
 IR Inten    --    196.9573                18.4828                70.3861

                     22                     23                     24
                      A                      A                      A
 Frequencies --    387.3093               415.6902               435.1592
 Red. masses --      2.1758                 1.1256                 5.1902
 Frc consts  --      0.1923                 0.1146                 0.5791
 IR Inten    --      4.8473                17.0595                56.3837

                     25                     26                     27
                      A                      A                      A
 Frequencies --    451.1770               458.9200               467.3781
 Red. masses --      2.0115                 2.4846                 1.8773
 Frc consts  --      0.2412                 0.3083                 0.2416
 IR Inten    --      8.2958               137.7506               145.0829

                     28                     29                     30
                      A                      A                      A
 Frequencies --    505.1695               561.1529               600.8259
 Red. masses --      1.0807                 4.1720                 1.2780
 Frc consts  --      0.1625                 0.7740                 0.2718
 IR Inten    --     37.5060                86.1972               395.2817

                     31                     32                     33
                      A                      A                      A
 Frequencies --    609.7688               624.0234               664.4561
 Red. masses --      1.1120                 3.6242                 1.8111
 Frc consts  --      0.2436                 0.8315                 0.4711
 IR Inten    --    309.7274                21.1800               113.3926

                     34                     35                     36
                      A                      A                      A
 Frequencies --    674.8966               761.9723               768.8438
 Red. masses --      1.7098                 5.0933                 1.1775
 Frc consts  --      0.4588                 1.7423                 0.4101
 IR Inten    --    137.7041                41.8882                 7.7007

                     37                     38                     39
                      A                      A                      A
 Frequencies --    798.6945               861.9741               906.1512
 Red. masses --      6.4476                 1.0980                 1.0606
 Frc consts  --      2.4233                 0.4807                 0.5131
 IR Inten    --     25.0484               144.1010               244.6984

                     40                     41                     42
                      A                      A                      A
 Frequencies --    950.4967               989.9627              1033.2725
 Red. masses --      1.4440                 1.6862                 1.4122
 Frc consts  --      0.7687                 0.9736                 0.8883
 IR Inten    --      5.3333                32.6105                88.3018

                     43                     44                     45
                      A                      A                      A
 Frequencies --   1055.2361              1185.7067              1211.4795
 Red. masses --      2.9973                 2.5002                 3.5162
 Frc consts  --      1.9665                 2.0710                 3.0406
 IR Inten    --     11.0967               137.9613               126.4975

                     46                     47                     48
                      A                      A                      A
 Frequencies --   1289.1610              1338.7208              1424.2818
 Red. masses --      2.6115                 1.1394                 1.6782
 Frc consts  --      2.5571                 1.2031                 2.0058
 IR Inten    --     40.5423                12.3438                94.3088

                     49                     50                     51
                      A                      A                      A
 Frequencies --   1431.1341              1466.2602              1474.3492
 Red. masses --      1.0480                 2.3698                 1.5629
 Frc consts  --      1.2647                 3.0018                 2.0017
 IR Inten    --      6.5660               273.3825                41.8822

                     52                     53                     54
                      A                      A                      A
 Frequencies --   1488.2614              1503.4045              1549.5427
 Red. masses --      1.6765                 3.7139                 4.0560
 Frc consts  --      2.1879                 4.9457                 5.7379
 IR Inten    --    462.8000               587.6193               390.4371

                     55                     56                     57
                      A                      A                      A
 Frequencies --   1596.4897              1606.1490              1630.6743
 Red. masses --      1.2260                 1.1254                 1.1100
 Frc consts  --      1.8411                 1.7105                 1.7391
 IR Inten    --    361.2592                20.9853               242.7969

                     58                     59                     60
                      A                      A                      A
 Frequencies --   1663.4069              1664.5863              1696.8930
 Red. masses --      3.9510                 1.6235                 2.0049
 Frc consts  --      6.4411                 2.6505                 3.4014
 IR Inten    --    318.5028              1864.9565              2058.4566

                     61                     62                     63
                      A                      A                      A
 Frequencies --   1719.8531              3040.7357              3143.8413
 Red. masses --      3.8919                 1.0373                 1.1020
 Frc consts  --      6.7825                 5.6508                 6.4174
 IR Inten    --    552.0080               915.1741                69.0454

                     64                     65                     66
                      A                      A                      A
 Frequencies --   3148.0346              3223.0311              3269.4223
 Red. masses --      1.1004                 1.0971                 1.0876
 Frc consts  --      6.4254                 6.7149                 6.8494
 IR Inten    --     48.6376               305.4701              1247.2744

                     67                     68                     69
                      A                      A                      A
 Frequencies --   3379.3622              3412.5235              3556.7490
 Red. masses --      1.0878                 1.0652                 1.0608
 Frc consts  --      7.3193                 7.3084                 7.9069
 IR Inten    --    116.4809              1116.9031              1452.1940

                     70                     71                     72
                      A                      A                      A
 Frequencies --   3675.5642              3702.4007              3750.1985
 Red. masses --      1.0566                 1.0486                 1.0795
 Frc consts  --      8.4100                 8.4686                 8.9447
 IR Inten    --    931.4487               567.6627               494.1524

                     73                     74                     75
                      A                      A                      A
 Frequencies --   3874.3653              3885.9828              3890.5709
 Red. masses --      1.0668                 1.0721                 1.0686
 Frc consts  --      9.4349                 9.5387                 9.5297
 IR Inten    --    158.3123               150.5285                52.6820

 - Thermochemistry -
 -------------------
 Temperature   298.150 Kelvin.  Pressure   1.00000 Atm.
 Atom     1 has atomic number  7 and mass  14.00307

 Molecular mass:   198.08519 amu.
 Principal axes and moments of inertia in atomic units:
                           1         2         3
     Eigenvalues --  2871.809173352.579786072.96554
           X            0.99931   0.03682  -0.00439
           Y           -0.03679   0.99930   0.00686
           Z            0.00464  -0.00669   0.99997
 This molecule is an asymmetric top.
 Rotational symmetry number  1.
 Warning -- assumption of classical behavior for rotation
           may cause significant error
 Rotational temperatures (Kelvin)      0.03016     0.02584     0.01426
 Rotational constants (GHZ):           0.62843     0.53831     0.29718
    2 imaginary frequencies ignored.
 Zero-point vibrational energy     563657.2 (Joules/Mol)
                                  134.71731 (Kcal/Mol)
 Warning -- explicit consideration of  29 degrees of freedom as
           vibrations may cause significant error
 Vibrational temperatures:     26.40    65.32    83.89    95.71   119.73
          (Kelvin)            164.96   172.47   212.64   224.63   254.09
                              257.52   272.98   299.47   335.03   388.37
                              406.18   452.61   466.16   536.81   557.25
                              598.09   626.10   649.14   660.28   672.45
                              726.83   807.37   864.45   877.32   897.83
                              956.00   971.03  1096.31  1106.19  1149.14
                             1240.19  1303.75  1367.55  1424.34  1486.65
                             1518.25  1705.97  1743.05  1854.82  1926.12
                             2049.22  2059.08  2109.62  2121.26  2141.28
                             2163.06  2229.45  2296.99  2310.89  2346.18
                             2393.27  2394.97  2441.45  2474.49  4374.94
                             4523.29  4529.32  4637.22  4703.97  4862.15
                             4909.86  5117.37  5288.32  5326.93  5395.70
                             5574.35  5591.06  5597.66

 Zero-point correction=                           0.214686 (Hartree/Particle)
 Thermal correction to Energy=                    0.232601
 Thermal correction to Enthalpy=                  0.233545
 Thermal correction to Gibbs Free Energy=         0.168135
 Sum of electronic and zero-point Energies=           -759.437999
 Sum of electronic and thermal Energies=              -759.420083
 Sum of electronic and thermal Enthalpies=            -759.419139
 Sum of electronic and thermal Free Energies=         -759.484550

                     E (Thermal)             CV                S
                      KCal/Mol        Cal/Mol-Kelvin    Cal/Mol-Kelvin
 Total                  145.959             62.632            137.668
 Electronic               0.000              0.000              0.000
 Translational            0.889              2.981             41.755
 Rotational               0.889              2.981             32.436
 Vibrational            144.182             56.670             63.476
 Vibration     1          0.593              1.986              6.805
 Vibration     2          0.595              1.979              5.008
 Vibration     3          0.596              1.974              4.514
 Vibration     4          0.598              1.970              4.254
 Vibration     5          0.600              1.961              3.814
 Vibration     6          0.608              1.937              3.189
 Vibration     7          0.609              1.933              3.102
 Vibration     8          0.617              1.905              2.700
 Vibration     9          0.620              1.896              2.596
 Vibration    10          0.628              1.871              2.364
 Vibration    11          0.629              1.868              2.339
 Vibration    12          0.633              1.854              2.230
 Vibration    13          0.641              1.828              2.060
 Vibration    14          0.654              1.791              1.857
 Vibration    15          0.674              1.729              1.597
 Vibration    16          0.681              1.706              1.520
 Vibration    17          0.702              1.646              1.338
 Vibration    18          0.709              1.627              1.290
 Vibration    19          0.745              1.527              1.067
 Vibration    20          0.756              1.497              1.010
 Vibration    21          0.779              1.436              0.907
 Vibration    22          0.796              1.394              0.842
 Vibration    23          0.810              1.358              0.792
 Vibration    24          0.817              1.341              0.769
 Vibration    25          0.825              1.322              0.745
 Vibration    26          0.860              1.239              0.645
 Vibration    27          0.917              1.115              0.522
 Vibration    28          0.959              1.030              0.448
 Vibration    29          0.969              1.011              0.433

 Normal termination of Gaussian 16 at Thu Jan  5 15:11:49 2023.
