 Gaussian 16, Revision B.01,
 Gaussian 16:  ES64L-G16RevB.01 20-Dec-2017

 ----------------------------------------------------------------------
 #p freq td=(nstates=10,root=6) cam-b3lyp/6-311+g(d,p) scrf=(solvent=wa
 ter,pcm) symm=loose
 ----------------------------------------------------------------------

 --------------------
 Thymine solvated ES6
 --------------------
 Symbolic Z-matrix:
 Charge =  0 Multiplicity = 1

                         Standard orientation:
 ---------------------------------------------------------------------
 Center     Atomic      Atomic             Coordinates (Angstroms)
 Number     Number       Type             X           Y           Z
 ---------------------------------------------------------------------
      1          7           0       -0.231165   -0.035141   -0.187654
      2          6           0        1.096368   -0.361997   -0.138091
      3          7           0        1.943485    0.693041    0.000329
      4          6           0        1.507124    1.988439    0.094046
      5          6           0        0.203040    2.318540    0.062719
      6          6           0       -0.757961    1.241995   -0.079486
      7          1           0       -0.888783   -0.813428   -0.333259
      8          8           0        1.493654   -1.526624   -0.212117
      9          1           0        2.937877    0.460731    0.032007
     10          1           0        2.289814    2.727806    0.199297
     11          8           0       -1.975809    1.412395   -0.108376
     12          6           0       -0.298919    3.723573    0.170889
     13          1           0       -0.877522    4.000626   -0.712721
     14          1           0       -0.955054    3.837803    1.036180
     15          1           0        0.531928    4.421320    0.272664
     16          8           0       -2.156963   -2.189392   -0.545540
     17          1           0        0.535019   -3.051632    0.413739
     18          8           0        4.219759   -1.004201    0.052340
     19          1           0       -3.350109    0.329651    0.141206
     20          1           0       -2.956623   -1.696600   -0.248786
     21          1           0       -2.337461   -2.493339   -1.441344
     22          8           0       -0.116053   -3.712336    0.699184
     23          1           0       -0.953794   -3.345363    0.374927
     24          1           0        3.437732   -1.554816   -0.124989
     25          1           0        4.871171   -1.226959   -0.619765
     26          8           0       -4.008523   -0.394844    0.189792
     27          1           0       -4.416871   -0.344382    1.059404
 ---------------------------------------------------------------------

 SCF Done:  E(RCAM-B3LYP) =  -759.890860891     A.U. after   14 cycles

 Excitation energies and oscillator strengths:

 Excited State   1:      Singlet-A      5.0347 eV  246.26 nm  f=0.3780  <S**2>=0.000
      53 -> 54         0.69708

 Excited State   2:      Singlet-A      5.5334 eV  224.06 nm  f=0.0001  <S**2>=0.000
      49 -> 54        -0.16849
      52 -> 54         0.63591
      52 -> 56         0.18810

 Excited State   3:      Singlet-A      6.2726 eV  197.66 nm  f=0.4069  <S**2>=0.000
      53 -> 56         0.69206

 Excited State   4:      Singlet-A      6.4811 eV  191.30 nm  f=0.0043  <S**2>=0.000
      53 -> 55         0.64782
      53 -> 57         0.10002
      53 -> 58        -0.12116
      53 -> 62        -0.19555

 Excited State   5:      Singlet-A      6.7639 eV  183.30 nm  f=0.2203  <S**2>=0.000
      50 -> 54         0.50670
      51 -> 54        -0.45107

 Excited State   6:      Singlet-A      6.7900 eV  182.60 nm  f=0.0013  <S**2>=0.000
      47 -> 56         0.14550
      49 -> 54        -0.20994
      49 -> 56         0.43850
      52 -> 54        -0.13914
      52 -> 56         0.40577
 This state for optimization and/or second-order correction.
 Total Energy, E(TD-HF/TD-DFT) =  -759.641331781
 Copying the excited state density for this state as the 1-particle RhoCI density.

 Excited State   7:      Singlet-A      7.1339 eV  173.80 nm  f=0.0028  <S**2>=0.000
      53 -> 57         0.62464
      53 -> 58         0.14178
      53 -> 60        -0.20251
      53 -> 62         0.10852

 Excited State   8:      Singlet-A      7.2536 eV  170.93 nm  f=0.0014  <S**2>=0.000
      53 -> 55         0.10836
      53 -> 57        -0.10207
      53 -> 58         0.64097
      53 -> 60         0.14039

 Excited State   9:      Singlet-A      7.3988 eV  167.57 nm  f=0.0010  <S**2>=0.000
      47 -> 54         0.11378
      49 -> 54         0.61117
      49 -> 56         0.13383
      52 -> 54         0.12423
      52 -> 56         0.20383

 Excited State  10:      Singlet-A      7.5158 eV  164.96 nm  f=0.1760  <S**2>=0.000
      50 -> 56        -0.29460
      51 -> 56         0.26971
      53 -> 59         0.53685

 The electronic state is 1-A.
 Alpha  occ. eigenvalues --  -19.21016 -19.20613 -19.20544 -19.19873 -19.19593
 Alpha  occ. eigenvalues --  -19.17490 -14.45664 -14.45096 -10.41842 -10.38600
 Alpha  occ. eigenvalues --  -10.32422 -10.27438 -10.24779  -1.18544  -1.15296
 Alpha  occ. eigenvalues --   -1.11202  -1.10210  -1.09565  -1.07898  -1.07002
 Alpha  occ. eigenvalues --   -1.02532  -0.91064  -0.80273  -0.76920  -0.75276
 Alpha  occ. eigenvalues --   -0.65771  -0.65397  -0.62831  -0.61930  -0.61378
 Alpha  occ. eigenvalues --   -0.60076  -0.58872  -0.57565  -0.55876  -0.53779
 Alpha  occ. eigenvalues --   -0.51778  -0.51004  -0.50075  -0.48221  -0.47884
 Alpha  occ. eigenvalues --   -0.47196  -0.46385  -0.45833  -0.44019  -0.43403
 Alpha  occ. eigenvalues --   -0.41109  -0.40342  -0.39903  -0.38465  -0.37390
 Alpha  occ. eigenvalues --   -0.37136  -0.36308  -0.31008
 Alpha virt. eigenvalues --   -0.00976   0.02635   0.03431   0.03887   0.04305
 Alpha virt. eigenvalues --    0.06050   0.06465   0.07121   0.07329   0.08949
 Alpha virt. eigenvalues --    0.09487   0.09852   0.10411   0.11410   0.12796

 Mulliken charges:
               1
     1  N   -0.507981
     2  C    0.481290
     3  N   -0.406504
     4  C   -0.305382
     5  C    0.714028
     6  C    0.001710
     7  H    0.439260
     8  O   -0.508716
     9  H    0.428947
    10  H    0.184959
    11  O   -0.436596
    12  C   -0.575396
    13  H    0.167501
    14  H    0.168580
    15  H    0.156694
    16  O   -0.709786
    17  H    0.326295
    18  O   -0.593985
    19  H    0.357321
    20  H    0.395293
    21  H    0.305880
    22  O   -0.679911
    23  H    0.349875
    24  H    0.296660
    25  H    0.305179
    26  O   -0.663903
    27  H    0.308686
 Sum of Mulliken charges =  -0.00000

 Dipole moment (field-independent basis, Debye):
    X=              2.5129    Y=              7.5757    Z=             -2.3615  Tot=              8.3236
 Quadrupole moment (field-independent basis, Debye-Ang):
   XX=            -69.9571   YY=            -95.7872   ZZ=            -77.4642
   XY=             10.9442   XZ=            -11.5466   YZ=             12.4380

  Exact polarizability: 239.592 -63.855 237.355  -1.916   6.157 102.140
 Approx polarizability: 154.522 -12.125 133.280   0.007   3.648  89.933

 ******    5 imaginary frequencies (negative Signs) ******

                      1                      2                      3
                      A                      A                      A
 Frequencies --   -889.6551              -234.4383              -170.7161
 Red. masses --     12.0855                 8.1376                 2.1390
 Frc consts  --      5.6359                 0.2635                 0.0367
 IR Inten    --     32.9002                 6.8172                44.5314

                      4                      5                      6
                      A                      A                      A
 Frequencies --    -84.9859               -53.4288                 9.6423
 Red. masses --      4.1804                 6.1084                 7.0244
 Frc consts  --      0.0178                 0.0103                 0.0004
 IR Inten    --     24.5563                 3.1230                 3.3967

                      7                      8                      9
                      A                      A                      A
 Frequencies --     50.6394                70.8095               104.7419
 Red. masses --      4.9109                 4.9019                 2.5877
 Frc consts  --      0.0074                 0.0145                 0.0167
 IR Inten    --      7.9898                17.8781                 3.3488

                     10                     11                     12
                      A                      A                      A
 Frequencies --    111.9064               131.4635               136.8408
 Red. masses --      1.3959                 4.4869                 5.4016
 Frc consts  --      0.0103                 0.0457                 0.0596
 IR Inten    --      1.5579                 2.0180                12.3424

                     13                     14                     15
                      A                      A                      A
 Frequencies --    152.5589               157.6479               162.1994
 Red. masses --      4.9868                 2.4727                 1.6913
 Frc consts  --      0.0684                 0.0362                 0.0262
 IR Inten    --     17.7747                23.6167                70.4996

                     16                     17                     18
                      A                      A                      A
 Frequencies --    168.8072               177.3171               207.5364
 Red. masses --      2.4344                 5.5609                 4.5543
 Frc consts  --      0.0409                 0.1030                 0.1156
 IR Inten    --     84.0577                20.5955                68.7168

                     19                     20                     21
                      A                      A                      A
 Frequencies --    222.2561               251.4137               280.1616
 Red. masses --      3.3329                 1.1077                 5.1320
 Frc consts  --      0.0970                 0.0413                 0.2373
 IR Inten    --     13.8981               205.0747                16.9151

                     22                     23                     24
                      A                      A                      A
 Frequencies --    305.0272               311.9937               326.3709
 Red. masses --      1.1222                 3.7794                 1.1184
 Frc consts  --      0.0615                 0.2168                 0.0702
 IR Inten    --    188.0537                36.3789                75.8469

                     25                     26                     27
                      A                      A                      A
 Frequencies --    397.3732               430.3608               436.7139
 Red. masses --      1.0825                 2.2652                 3.5707
 Frc consts  --      0.1007                 0.2472                 0.4012
 IR Inten    --     73.2629                32.8712                40.0320

                     28                     29                     30
                      A                      A                      A
 Frequencies --    447.4673               461.9890               500.2415
 Red. masses --      1.4161                 1.1234                 1.6463
 Frc consts  --      0.1671                 0.1413                 0.2427
 IR Inten    --     83.5148                97.9988              1300.3547

                     31                     32                     33
                      A                      A                      A
 Frequencies --    538.6052               580.5905               595.9727
 Red. masses --      2.6111                 3.6043                 1.1831
 Frc consts  --      0.4463                 0.7158                 0.2476
 IR Inten    --    120.6385                 3.5594               355.0856

                     34                     35                     36
                      A                      A                      A
 Frequencies --    651.2797               671.7260               676.1509
 Red. masses --      2.2187                 1.1901                 1.4563
 Frc consts  --      0.5545                 0.3164                 0.3923
 IR Inten    --    332.3391               143.2524               300.9733

                     37                     38                     39
                      A                      A                      A
 Frequencies --    703.9126               731.6381               754.8359
 Red. masses --      1.4056                 2.4540                 3.8849
 Frc consts  --      0.4104                 0.7740                 1.3042
 IR Inten    --    239.8712               147.1410                63.1217

                     40                     41                     42
                      A                      A                      A
 Frequencies --    845.1212               896.7217               900.0155
 Red. masses --      6.9252                 1.2920                 1.0541
 Frc consts  --      2.9142                 0.6121                 0.5031
 IR Inten    --    118.0351                11.9388               210.8161

                     43                     44                     45
                      A                      A                      A
 Frequencies --   1008.7020              1065.7630              1069.5299
 Red. masses --      1.5975                 4.4750                 1.3805
 Frc consts  --      0.9577                 2.9948                 0.9304
 IR Inten    --     32.3417                73.0885                 0.0402

                     46                     47                     48
                      A                      A                      A
 Frequencies --   1231.7312              1245.3801              1346.8729
 Red. masses --      2.6557                 3.0642                 1.6642
 Frc consts  --      2.3739                 2.8001                 1.7787
 IR Inten    --    144.0385               101.5985               119.8415

                     49                     50                     51
                      A                      A                      A
 Frequencies --   1420.8662              1451.7227              1468.8933
 Red. masses --      1.2942                 3.2389                 1.0413
 Frc consts  --      1.5394                 4.0217                 1.3237
 IR Inten    --      7.5354                 3.3803                13.7699

                     52                     53                     54
                      A                      A                      A
 Frequencies --   1494.4112              1546.4645              1566.2416
 Red. masses --      1.0612                 1.9415                 1.3373
 Frc consts  --      1.3963                 2.7357                 1.9328
 IR Inten    --     10.6076               165.8684               122.7249

                     55                     56                     57
                      A                      A                      A
 Frequencies --   1600.4290              1604.9984              1631.4804
 Red. masses --      1.1223                 1.0931                 1.1152
 Frc consts  --      1.6937                 1.6591                 1.7489
 IR Inten    --    159.2852               113.2974               188.1677

                     58                     59                     60
                      A                      A                      A
 Frequencies --   1656.9278              1675.7014              1725.4024
 Red. masses --      1.6804                 1.5841                 6.0465
 Frc consts  --      2.7181                 2.6208                10.6056
 IR Inten    --    965.9132               109.4701               321.3553

                     61                     62                     63
                      A                      A                      A
 Frequencies --   1813.0438              3049.2326              3098.9263
 Red. masses --      9.7301                 1.0361                 1.1024
 Frc consts  --     18.8445                 5.6756                 6.2378
 IR Inten    --    126.7869                84.8955                38.9247

                     64                     65                     66
                      A                      A                      A
 Frequencies --   3139.3950              3229.5949              3301.4285
 Red. masses --      1.1022                 1.0933                 1.0818
 Frc consts  --      6.4002                 6.7187                 6.9469
 IR Inten    --     21.0433                 6.7477               801.8113

                     67                     68                     69
                      A                      A                      A
 Frequencies --   3407.8589              3437.8677              3516.9285
 Red. masses --      1.0655                 1.0806                 1.0632
 Frc consts  --      7.2904                 7.5245                 7.7479
 IR Inten    --    678.6486              1071.1850              1917.9119

                     70                     71                     72
                      A                      A                      A
 Frequencies --   3687.6482              3690.9330              3748.3864
 Red. masses --      1.0552                 1.0483                 1.0811
 Frc consts  --      8.4548                 8.4142                 8.9495
 IR Inten    --    168.2322               291.2153               294.7423

                     73                     74                     75
                      A                      A                      A
 Frequencies --   3879.1852              3892.7859              3902.4991
 Red. masses --      1.0668                 1.0680                 1.0729
 Frc consts  --      9.4584                 9.5356                 9.6275
 IR Inten    --    140.2954               159.5904               217.5169

 - Thermochemistry -
 -------------------
 Temperature   298.150 Kelvin.  Pressure   1.00000 Atm.
 Atom     1 has atomic number  7 and mass  14.00307

 Molecular mass:   198.08519 amu.
 Principal axes and moments of inertia in atomic units:
                           1         2         3
     Eigenvalues --  2871.809173352.579786072.96554
           X            0.99931   0.03682  -0.00439
           Y           -0.03679   0.99930   0.00686
           Z            0.00464  -0.00669   0.99997
 This molecule is an asymmetric top.
 Rotational symmetry number  1.
 Warning -- assumption of classical behavior for rotation
           may cause significant error
 Rotational temperatures (Kelvin)      0.03016     0.02584     0.01426
 Rotational constants (GHZ):           0.62843     0.53831     0.29718
    5 imaginary frequencies ignored.
 Zero-point vibrational energy     545301.4 (Joules/Mol)
                                  130.33017 (Kcal/Mol)
 Warning -- explicit consideration of  28 degrees of freedom as
           vibrations may cause significant error
 Vibrational temperatures:     13.87    72.86   101.88   150.70   161.01
          (Kelvin)            189.15   196.88   219.50   226.82   233.37
                              242.88   255.12   298.60   319.78   361.73
                              403.09   438.87   448.89   469.57   571.73
                              619.19   628.33   643.81   664.70   719.74
                              774.93   835.34   857.47   937.05   966.46
                              972.83  1012.77  1052.66  1086.04  1215.94
                             1290.18  1294.92  1451.30  1533.40  1538.81
                             1772.19  1791.82  1937.85  2044.31  2088.71
                             2113.41  2150.12  2225.02  2253.47  2302.66
                             2309.23  2347.34  2383.95  2410.96  2482.47
                             2608.57  4387.17  4458.66  4516.89  4646.67
                             4750.02  4903.15  4946.32  5060.08  5305.70
                             5310.43  5393.09  5581.28  5600.85  5614.83

 Zero-point correction=                           0.207694 (Hartree/Particle)
 Thermal correction to Energy=                    0.225349
 Thermal correction to Enthalpy=                  0.226293
 Thermal correction to Gibbs Free Energy=         0.161412
 Sum of electronic and zero-point Energies=           -759.433637
 Sum of electronic and thermal Energies=              -759.415983
 Sum of electronic and thermal Enthalpies=            -759.415038
 Sum of electronic and thermal Free Energies=         -759.479920

                     E (Thermal)             CV                S
                      KCal/Mol        Cal/Mol-Kelvin    Cal/Mol-Kelvin
 Total                  141.409             61.419            136.554
 Electronic               0.000              0.000              0.000
 Translational            0.889              2.981             41.755
 Rotational               0.889              2.981             32.436
 Vibrational            139.631             55.458             62.363
 Vibration     1          0.593              1.987              8.083
 Vibration     2          0.595              1.977              4.792
 Vibration     3          0.598              1.968              4.131
 Vibration     4          0.605              1.945              3.364
 Vibration     5          0.607              1.940              3.236
 Vibration     6          0.612              1.922              2.925
 Vibration     7          0.614              1.917              2.848
 Vibration     8          0.619              1.900              2.640
 Vibration     9          0.621              1.894              2.578
 Vibration    10          0.622              1.889              2.524
 Vibration    11          0.625              1.881              2.449
 Vibration    12          0.628              1.870              2.356
 Vibration    13          0.641              1.829              2.065
 Vibration    14          0.648              1.807              1.941
 Vibration    15          0.663              1.760              1.721
 Vibration    16          0.680              1.710              1.533
 Vibration    17          0.696              1.664              1.389
 Vibration    18          0.700              1.651              1.352
 Vibration    19          0.710              1.623              1.278
 Vibration    20          0.764              1.476              0.972
 Vibration    21          0.792              1.404              0.857
 Vibration    22          0.797              1.390              0.837
 Vibration    23          0.807              1.366              0.803
 Vibration    24          0.820              1.334              0.760
 Vibration    25          0.856              1.249              0.658
 Vibration    26          0.894              1.165              0.568
 Vibration    27          0.937              1.073              0.484
 Vibration    28          0.954              1.040              0.457

 Normal termination of Gaussian 16 at Thu Jan  5 15:22:08 2023.
