 Gaussian 16, Revision B.01,
 Gaussian 16:  ES64L-G16RevB.01 20-Dec-2017

 ----------------------------------------------------------------------
 #p freq td=(nstates=10,root=5) cam-b3lyp/6-311+g(d,p) scrf=(solvent=wa
 ter,pcm) symm=loose
 ----------------------------------------------------------------------

 --------------------
 Thymine solvated ES5
 --------------------
 Symbolic Z-matrix:
 Charge =  0 Multiplicity = 1

                         Standard orientation:
 ---------------------------------------------------------------------
 Center     Atomic      Atomic             Coordinates (Angstroms)
 Number     Number       Type             X           Y           Z
 ---------------------------------------------------------------------
      1          7           0       -0.231165   -0.035141   -0.187654
      2          6           0        1.096368   -0.361997   -0.138091
      3          7           0        1.943485    0.693041    0.000329
      4          6           0        1.507124    1.988439    0.094046
      5          6           0        0.203040    2.318540    0.062719
      6          6           0       -0.757961    1.241995   -0.079486
      7          1           0       -0.888783   -0.813428   -0.333259
      8          8           0        1.493654   -1.526624   -0.212117
      9          1           0        2.937877    0.460731    0.032007
     10          1           0        2.289814    2.727806    0.199297
     11          8           0       -1.975809    1.412395   -0.108376
     12          6           0       -0.298919    3.723573    0.170889
     13          1           0       -0.877522    4.000626   -0.712721
     14          1           0       -0.955054    3.837803    1.036180
     15          1           0        0.531928    4.421320    0.272664
     16          8           0       -2.156963   -2.189392   -0.545540
     17          1           0        0.535019   -3.051632    0.413739
     18          8           0        4.219759   -1.004201    0.052340
     19          1           0       -3.350109    0.329651    0.141206
     20          1           0       -2.956623   -1.696600   -0.248786
     21          1           0       -2.337461   -2.493339   -1.441344
     22          8           0       -0.116053   -3.712336    0.699184
     23          1           0       -0.953794   -3.345363    0.374927
     24          1           0        3.437732   -1.554816   -0.124989
     25          1           0        4.871171   -1.226959   -0.619765
     26          8           0       -4.008523   -0.394844    0.189792
     27          1           0       -4.416871   -0.344382    1.059404
 ---------------------------------------------------------------------

 SCF Done:  E(RCAM-B3LYP) =  -759.890860891     A.U. after   14 cycles

 Excitation energies and oscillator strengths:

 Excited State   1:      Singlet-A      5.0347 eV  246.26 nm  f=0.3780  <S**2>=0.000
      53 -> 54         0.69708

 Excited State   2:      Singlet-A      5.5334 eV  224.06 nm  f=0.0001  <S**2>=0.000
      49 -> 54        -0.16849
      52 -> 54         0.63591
      52 -> 56         0.18810

 Excited State   3:      Singlet-A      6.2726 eV  197.66 nm  f=0.4069  <S**2>=0.000
      53 -> 56         0.69206

 Excited State   4:      Singlet-A      6.4811 eV  191.30 nm  f=0.0043  <S**2>=0.000
      53 -> 55         0.64782
      53 -> 57         0.10002
      53 -> 58        -0.12116
      53 -> 62        -0.19555

 Excited State   5:      Singlet-A      6.7639 eV  183.30 nm  f=0.2203  <S**2>=0.000
      50 -> 54         0.50670
      51 -> 54        -0.45107
 This state for optimization and/or second-order correction.
 Total Energy, E(TD-HF/TD-DFT) =  -759.642291003
 Copying the excited state density for this state as the 1-particle RhoCI density.

 Excited State   6:      Singlet-A      6.7900 eV  182.60 nm  f=0.0013  <S**2>=0.000
      47 -> 56         0.14550
      49 -> 54        -0.20994
      49 -> 56         0.43850
      52 -> 54        -0.13914
      52 -> 56         0.40577

 Excited State   7:      Singlet-A      7.1339 eV  173.80 nm  f=0.0028  <S**2>=0.000
      53 -> 57         0.62464
      53 -> 58         0.14178
      53 -> 60        -0.20251
      53 -> 62         0.10852

 Excited State   8:      Singlet-A      7.2536 eV  170.93 nm  f=0.0014  <S**2>=0.000
      53 -> 55         0.10836
      53 -> 57        -0.10207
      53 -> 58         0.64097
      53 -> 60         0.14039

 Excited State   9:      Singlet-A      7.3988 eV  167.57 nm  f=0.0010  <S**2>=0.000
      47 -> 54         0.11378
      49 -> 54         0.61117
      49 -> 56         0.13383
      52 -> 54         0.12423
      52 -> 56         0.20383

 Excited State  10:      Singlet-A      7.5158 eV  164.96 nm  f=0.1760  <S**2>=0.000
      50 -> 56        -0.29460
      51 -> 56         0.26971
      53 -> 59         0.53685

 The electronic state is 1-A.
 Alpha  occ. eigenvalues --  -19.21016 -19.20613 -19.20544 -19.19873 -19.19593
 Alpha  occ. eigenvalues --  -19.17490 -14.45664 -14.45096 -10.41842 -10.38600
 Alpha  occ. eigenvalues --  -10.32422 -10.27438 -10.24779  -1.18544  -1.15296
 Alpha  occ. eigenvalues --   -1.11202  -1.10210  -1.09565  -1.07898  -1.07002
 Alpha  occ. eigenvalues --   -1.02532  -0.91064  -0.80273  -0.76920  -0.75276
 Alpha  occ. eigenvalues --   -0.65771  -0.65397  -0.62831  -0.61930  -0.61378
 Alpha  occ. eigenvalues --   -0.60076  -0.58872  -0.57565  -0.55876  -0.53779
 Alpha  occ. eigenvalues --   -0.51778  -0.51004  -0.50075  -0.48221  -0.47884
 Alpha  occ. eigenvalues --   -0.47196  -0.46385  -0.45833  -0.44019  -0.43403
 Alpha  occ. eigenvalues --   -0.41109  -0.40342  -0.39903  -0.38465  -0.37390
 Alpha  occ. eigenvalues --   -0.37136  -0.36308  -0.31008
 Alpha virt. eigenvalues --   -0.00976   0.02635   0.03431   0.03887   0.04305
 Alpha virt. eigenvalues --    0.06050   0.06465   0.07121   0.07329   0.08949
 Alpha virt. eigenvalues --    0.09487   0.09852   0.10411   0.11410   0.12796

 Mulliken charges:
               1
     1  N   -0.507981
     2  C    0.481290
     3  N   -0.406504
     4  C   -0.305382
     5  C    0.714028
     6  C    0.001710
     7  H    0.439260
     8  O   -0.508716
     9  H    0.428947
    10  H    0.184959
    11  O   -0.436596
    12  C   -0.575396
    13  H    0.167501
    14  H    0.168580
    15  H    0.156694
    16  O   -0.709786
    17  H    0.326295
    18  O   -0.593985
    19  H    0.357321
    20  H    0.395293
    21  H    0.305880
    22  O   -0.679911
    23  H    0.349875
    24  H    0.296660
    25  H    0.305179
    26  O   -0.663903
    27  H    0.308686
 Sum of Mulliken charges =  -0.00000

 Dipole moment (field-independent basis, Debye):
    X=              2.5129    Y=              7.5757    Z=             -2.3615  Tot=              8.3236
 Quadrupole moment (field-independent basis, Debye-Ang):
   XX=            -69.9571   YY=            -95.7872   ZZ=            -77.4642
   XY=             10.9442   XZ=            -11.5466   YZ=             12.4380

  Exact polarizability: 207.985   4.769 197.811   3.586   6.392 113.347
 Approx polarizability: 154.522 -12.125 133.280   0.007   3.648  89.933

 ******    4 imaginary frequencies (negative Signs) ******

                      1                      2                      3
                      A                      A                      A
 Frequencies --   -442.3799              -201.6706              -113.6865
 Red. masses --      9.1619                 4.9180                 6.7211
 Frc consts  --      1.0564                 0.1178                 0.0512
 IR Inten    --     66.6982                 3.1034                 8.7389

                      4                      5                      6
                      A                      A                      A
 Frequencies --    -36.4560                13.3074                61.5607
 Red. masses --      6.1421                 5.6350                 7.3025
 Frc consts  --      0.0048                 0.0006                 0.0163
 IR Inten    --      5.7484                 4.4640                 4.3119

                      7                      8                      9
                      A                      A                      A
 Frequencies --     70.7463                97.5544               103.9648
 Red. masses --      5.7092                 4.8274                 4.5432
 Frc consts  --      0.0168                 0.0271                 0.0289
 IR Inten    --      1.4377                 9.4584                13.5062

                     10                     11                     12
                      A                      A                      A
 Frequencies --    106.3683               118.8935               153.8253
 Red. masses --      1.1026                 6.6252                 6.9877
 Frc consts  --      0.0073                 0.0552                 0.0974
 IR Inten    --      0.5860                15.9571                 5.7783

                     13                     14                     15
                      A                      A                      A
 Frequencies --    169.2658               174.7784               180.0475
 Red. masses --      4.4307                 3.5813                 5.6859
 Frc consts  --      0.0748                 0.0645                 0.1086
 IR Inten    --      4.5086                19.1014                 5.9881

                     16                     17                     18
                      A                      A                      A
 Frequencies --    182.6237               217.7734               253.0919
 Red. masses --      4.8979                 1.2477                 1.1109
 Frc consts  --      0.0962                 0.0349                 0.0419
 IR Inten    --     55.9487               146.4806               192.0973

                     19                     20                     21
                      A                      A                      A
 Frequencies --    268.0352               281.4899               317.2657
 Red. masses --      3.7004                 4.9339                 1.2390
 Frc consts  --      0.1566                 0.2303                 0.0735
 IR Inten    --     31.1500                20.6858                10.9279

                     22                     23                     24
                      A                      A                      A
 Frequencies --    324.9096               363.4966               374.8706
 Red. masses --      1.0989                 5.4777                 1.0821
 Frc consts  --      0.0684                 0.4264                 0.0896
 IR Inten    --    267.2443                 4.9915                50.7818

                     25                     26                     27
                      A                      A                      A
 Frequencies --    422.4649               444.0374               470.3586
 Red. masses --      1.0996                 1.1676                 2.9443
 Frc consts  --      0.1156                 0.1356                 0.3838
 IR Inten    --     37.7425               129.1893                19.0316

                     28                     29                     30
                      A                      A                      A
 Frequencies --    477.1071               498.2777               509.2317
 Red. masses --      4.2133                 5.4933                 1.4689
 Frc consts  --      0.5651                 0.8036                 0.2244
 IR Inten    --     45.1590                47.3608               126.0232

                     31                     32                     33
                      A                      A                      A
 Frequencies --    512.8626               589.0404               595.7024
 Red. masses --      1.1350                 1.2186                 1.1413
 Frc consts  --      0.1759                 0.2491                 0.2386
 IR Inten    --     54.7195               150.1847               102.7199

                     34                     35                     36
                      A                      A                      A
 Frequencies --    618.3374               622.1506               675.3986
 Red. masses --      1.5282                 2.4212                 1.0740
 Frc consts  --      0.3442                 0.5522                 0.2887
 IR Inten    --    309.3909               194.6432               270.4740

                     37                     38                     39
                      A                      A                      A
 Frequencies --    695.4571               723.2553               762.8140
 Red. masses --      1.1419                 5.1517                 2.1593
 Frc consts  --      0.3254                 1.5878                 0.7403
 IR Inten    --    100.9037                59.8577               317.1233

                     40                     41                     42
                      A                      A                      A
 Frequencies --    802.2951               897.0382               944.7087
 Red. masses --      5.1831                 1.2173                 2.2079
 Frc consts  --      1.9657                 0.5771                 1.1610
 IR Inten    --    100.8227               382.5014                32.3565

                     43                     44                     45
                      A                      A                      A
 Frequencies --   1016.4235              1057.6500              1066.6201
 Red. masses --      2.3165                 1.4760                 3.7580
 Frc consts  --      1.4100                 0.9728                 2.5190
 IR Inten    --     11.4607                 5.6403                58.6057

                     46                     47                     48
                      A                      A                      A
 Frequencies --   1173.3350              1224.5049              1307.1439
 Red. masses --      3.6041                 2.0982                 3.6911
 Frc consts  --      2.9234                 1.8536                 3.7159
 IR Inten    --    127.5225               160.4046               178.3674

                     49                     50                     51
                      A                      A                      A
 Frequencies --   1396.6650              1419.3845              1448.3516
 Red. masses --      1.7755                 1.3438                 2.4119
 Frc consts  --      2.0406                 1.5951                 2.9810
 IR Inten    --    138.7369                11.5401                17.7676

                     52                     53                     54
                      A                      A                      A
 Frequencies --   1468.1153              1484.6502              1522.3099
 Red. masses --      1.0430                 1.0667                 1.8948
 Frc consts  --      1.3246                 1.3853                 2.5871
 IR Inten    --     12.9980                 8.3832                57.8164

                     55                     56                     57
                      A                      A                      A
 Frequencies --   1590.6515              1598.1092              1617.2418
 Red. masses --      1.3198                 1.1124                 1.7016
 Frc consts  --      1.9675                 1.6739                 2.6222
 IR Inten    --    271.5239                18.5436               346.1849

                     58                     59                     60
                      A                      A                      A
 Frequencies --   1636.1199              1646.0314              1676.7732
 Red. masses --      1.1480                 3.0377                 1.1919
 Frc consts  --      1.8106                 4.8492                 1.9745
 IR Inten    --      6.1467                 1.6335               470.8236

                     61                     62                     63
                      A                      A                      A
 Frequencies --   1702.8898              3054.7300              3108.9997
 Red. masses --      3.9471                 1.0364                 1.1016
 Frc consts  --      6.7438                 5.6981                 6.2739
 IR Inten    --    601.8797                27.9943                30.5654

                     64                     65                     66
                      A                      A                      A
 Frequencies --   3141.7909              3220.4448              3262.1268
 Red. masses --      1.1025                 1.0911                 1.0864
 Frc consts  --      6.4119                 6.6671                 6.8114
 IR Inten    --     23.6915                 3.3050              1088.7321

                     67                     68                     69
                      A                      A                      A
 Frequencies --   3405.9725              3435.9107              3519.9149
 Red. masses --      1.0654                 1.0823                 1.0625
 Frc consts  --      7.2820                 7.5283                 7.7560
 IR Inten    --   1012.0457               739.5809              1575.3840

                     70                     71                     72
                      A                      A                      A
 Frequencies --   3685.3106              3702.4126              3747.2393
 Red. masses --      1.0568                 1.0476                 1.0806
 Frc consts  --      8.4567                 8.4612                 8.9403
 IR Inten    --    347.6959               486.6107               493.4815

                     73                     74                     75
                      A                      A                      A
 Frequencies --   3879.2988              3892.1836              3897.9591
 Red. masses --      1.0667                 1.0681                 1.0718
 Frc consts  --      9.4583                 9.5339                 9.5951
 IR Inten    --    148.8321               147.2617               169.7015

 - Thermochemistry -
 -------------------
 Temperature   298.150 Kelvin.  Pressure   1.00000 Atm.
 Atom     1 has atomic number  7 and mass  14.00307

 Molecular mass:   198.08519 amu.
 Principal axes and moments of inertia in atomic units:
                           1         2         3
     Eigenvalues --  2871.809173352.579786072.96554
           X            0.99931   0.03682  -0.00439
           Y           -0.03679   0.99930   0.00686
           Z            0.00464  -0.00669   0.99997
 This molecule is an asymmetric top.
 Rotational symmetry number  1.
 Warning -- assumption of classical behavior for rotation
           may cause significant error
 Rotational temperatures (Kelvin)      0.03016     0.02584     0.01426
 Rotational constants (GHZ):           0.62843     0.53831     0.29718
    4 imaginary frequencies ignored.
 Zero-point vibrational energy     544909.0 (Joules/Mol)
                                  130.23638 (Kcal/Mol)
 Warning -- explicit consideration of  30 degrees of freedom as
           vibrations may cause significant error
 Vibrational temperatures:     19.15    88.57   101.79   140.36   149.58
          (Kelvin)            153.04   171.06   221.32   243.54   251.47
                              259.05   262.75   313.33   364.14   385.64
                              405.00   456.47   467.47   522.99   539.36
                              607.83   638.87   676.74   686.45   716.91
                              732.67   737.89   847.50   857.08   889.65
                              895.14   971.75  1000.61  1040.60  1097.52
                             1154.32  1290.64  1359.23  1462.41  1521.72
                             1534.63  1688.17  1761.79  1880.69  2009.49
                             2042.18  2083.85  2112.29  2136.08  2190.26
                             2288.59  2299.32  2326.85  2354.01  2368.27
                             2412.50  2450.08  4395.08  4473.16  4520.34
                             4633.50  4693.47  4900.43  4943.51  5064.37
                             5302.34  5326.95  5391.44  5581.45  5599.98
                             5608.29

 Zero-point correction=                           0.207545 (Hartree/Particle)
 Thermal correction to Energy=                    0.225335
 Thermal correction to Enthalpy=                  0.226279
 Thermal correction to Gibbs Free Energy=         0.161601
 Sum of electronic and zero-point Energies=           -759.434746
 Sum of electronic and thermal Energies=              -759.416956
 Sum of electronic and thermal Enthalpies=            -759.416012
 Sum of electronic and thermal Free Energies=         -759.480690

                     E (Thermal)             CV                S
                      KCal/Mol        Cal/Mol-Kelvin    Cal/Mol-Kelvin
 Total                  141.400             62.790            136.126
 Electronic               0.000              0.000              0.000
 Translational            0.889              2.981             41.755
 Rotational               0.889              2.981             32.436
 Vibrational            139.622             56.828             61.935
 Vibration     1          0.593              1.987              7.443
 Vibration     2          0.597              1.973              4.407
 Vibration     3          0.598              1.968              4.132
 Vibration     4          0.603              1.951              3.503
 Vibration     5          0.605              1.946              3.379
 Vibration     6          0.605              1.944              3.334
 Vibration     7          0.609              1.934              3.118
 Vibration     8          0.619              1.898              2.624
 Vibration     9          0.625              1.880              2.444
 Vibration    10          0.627              1.873              2.383
 Vibration    11          0.629              1.867              2.328
 Vibration    12          0.630              1.863              2.301
 Vibration    13          0.646              1.814              1.978
 Vibration    14          0.664              1.758              1.709
 Vibration    15          0.673              1.732              1.609
 Vibration    16          0.681              1.708              1.525
 Vibration    17          0.704              1.641              1.324
 Vibration    18          0.709              1.626              1.285
 Vibration    19          0.737              1.547              1.107
 Vibration    20          0.746              1.524              1.060
 Vibration    21          0.785              1.421              0.884
 Vibration    22          0.804              1.374              0.814
 Vibration    23          0.827              1.316              0.737
 Vibration    24          0.834              1.301              0.718
 Vibration    25          0.854              1.254              0.662
 Vibration    26          0.864              1.230              0.635
 Vibration    27          0.868              1.221              0.627
 Vibration    28          0.946              1.055              0.469
 Vibration    29          0.953              1.041              0.457
 Vibration    30          0.978              0.993              0.419

 Normal termination of Gaussian 16 at Thu Jan  5 15:21:07 2023.
