 Gaussian 16, Revision B.01,
 Gaussian 16:  ES64L-G16RevB.01 20-Dec-2017

 ----------------------------------------------------------------
 #p freq td=(nstates=10,root=3) cam-b3lyp/6-311+G(d,p) symm=loose
 ----------------------------------------------------------------

 -----------------------------
 Thymine TDDFT excited state 3
 -----------------------------
 Symbolic Z-matrix:
 Charge =  0 Multiplicity = 1

                         Standard orientation:
 ---------------------------------------------------------------------
 Center     Atomic      Atomic             Coordinates (Angstroms)
 Number     Number       Type             X           Y           Z
 ---------------------------------------------------------------------
      1          7           0        0.155734   -1.659062    0.000000
      2          6           0        1.356002   -0.978945    0.000000
      3          7           0        1.195950    0.391060    0.000000
      4          6           0       -0.000000    1.115359    0.000000
      5          6           0       -1.214288    0.295879    0.000000
      6          6           0       -1.073627   -1.037299    0.000000
      7          8           0        2.431070   -1.530595    0.000000
      8          8           0        0.017636    2.326209    0.000000
      9          1           0        0.230272   -2.664179    0.000000
     10          1           0        2.049840    0.933880    0.000000
     11          6           0       -2.533447    1.000264    0.000000
     12          1           0       -1.925029   -1.706110    0.000000
     13          1           0       -3.358140    0.286495    0.000000
     14          1           0       -2.628104    1.644735    0.876132
     15          1           0       -2.628104    1.644735   -0.876132
 ---------------------------------------------------------------------

 SCF Done:  E(RCAM-B3LYP) =  -454.074711543     A.U. after   15 cycles

 Excitation energies and oscillator strengths:

 Excited State   1:      Singlet-A"     5.1426 eV  241.09 nm  f=0.0000  <S**2>=0.000
      30 -> 34        -0.18938
      32 -> 34         0.62803
      32 -> 38        -0.20909

 Excited State   2:      Singlet-A'     5.3144 eV  233.30 nm  f=0.1912  <S**2>=0.000
      33 -> 34         0.69017

 Excited State   3:      Singlet-A"     5.9445 eV  208.57 nm  f=0.0006  <S**2>=0.000
      33 -> 35         0.69012
 This state for optimization and/or second-order correction.
 Total Energy, E(TD-HF/TD-DFT) =  -453.856253776
 Copying the excited state density for this state as the 1-particle RhoCI density.

 Excited State   4:      Singlet-A"     6.4658 eV  191.76 nm  f=0.0000  <S**2>=0.000
      30 -> 34         0.25974
      30 -> 38         0.38301
      30 -> 39        -0.20254
      30 -> 52         0.11665
      32 -> 34         0.16494
      32 -> 38         0.39748
      32 -> 39        -0.17721

 Excited State   5:      Singlet-A'     6.6748 eV  185.75 nm  f=0.0547  <S**2>=0.000
      31 -> 34         0.68634

 Excited State   6:      Singlet-A'     6.7315 eV  184.19 nm  f=0.2185  <S**2>=0.000
      33 -> 38         0.66365
      33 -> 39        -0.18842

 Excited State   7:      Singlet-A"     6.7793 eV  182.89 nm  f=0.0013  <S**2>=0.000
      33 -> 36         0.27388
      33 -> 37         0.59719
      33 -> 41        -0.19371

 Excited State   8:      Singlet-A"     6.9269 eV  178.99 nm  f=0.0000  <S**2>=0.000
      33 -> 36         0.61027
      33 -> 37        -0.27521
      33 -> 40        -0.12310

 Excited State   9:      Singlet-A"     7.1731 eV  172.85 nm  f=0.0007  <S**2>=0.000
      30 -> 34         0.61444
      30 -> 38        -0.20747
      32 -> 34         0.14621
      32 -> 38        -0.19627

 Excited State  10:      Singlet-A'     7.3422 eV  168.86 nm  f=0.0103  <S**2>=0.000
      32 -> 35        -0.28799
      32 -> 37         0.29123
      33 -> 38         0.13451
      33 -> 39         0.52305

 The electronic state is 1-A'.
 Alpha  occ. eigenvalues --  -19.18506 -19.18389 -14.46254 -14.44870 -10.40961
 Alpha  occ. eigenvalues --  -10.37656 -10.33047 -10.27865 -10.25540  -1.17874
 Alpha  occ. eigenvalues --   -1.14626  -1.07595  -1.02248  -0.91389  -0.80632
 Alpha  occ. eigenvalues --   -0.76868  -0.75140  -0.65566  -0.65174  -0.60221
 Alpha  occ. eigenvalues --   -0.57170  -0.55457  -0.52377  -0.51058  -0.50867
 Alpha  occ. eigenvalues --   -0.48264  -0.47949  -0.46529  -0.43743  -0.37633
 Alpha  occ. eigenvalues --   -0.36263  -0.34676  -0.31071
 Alpha virt. eigenvalues --   -0.00845   0.00927   0.03499   0.03649   0.04544
 Alpha virt. eigenvalues --    0.05658   0.06162   0.07298   0.07681   0.08723
 Alpha virt. eigenvalues --    0.09828   0.10048   0.10770   0.12155   0.13774

 Mulliken charges:
               1
     1  N   -0.393585
     2  C    0.416849
     3  N   -0.449668
     4  C    0.108923
     5  C    0.592095
     6  C   -0.297182
     7  O   -0.372486
     8  O   -0.335398
     9  H    0.334676
    10  H    0.347380
    11  C   -0.566122
    12  H    0.144178
    13  H    0.129683
    14  H    0.170329
    15  H    0.170329
 Sum of Mulliken charges =  -0.00000

 Dipole moment (field-independent basis, Debye):
    X=             -3.5246    Y=             -2.8845    Z=             -0.0000  Tot=              4.5544
 Quadrupole moment (field-independent basis, Debye-Ang):
   XX=            -55.0426   YY=            -56.7035   ZZ=            -52.9440
   XY=              8.5553   XZ=              0.0000   YZ=             -0.0000

  Exact polarizability: 382.436  -4.706 365.867   0.000  -0.000 264.128
 Approx polarizability:  94.946 -11.033 120.912  -0.000  -0.000  57.485

 ******    2 imaginary frequencies (negative Signs) ******

                      1                      2                      3
                     A"                     A"                     A"
 Frequencies --   -345.2461              -134.6798               137.5044
 Red. masses --      1.2078                 1.0299                 5.0013
 Frc consts  --      0.0848                 0.0110                 0.0557
 IR Inten    --    591.4558                 6.2781                30.5646

                      4                      5                      6
                     A"                     A'                     A"
 Frequencies --    166.3927               294.7715               370.2266
 Red. masses --      7.5302                 3.0536                 3.8934
 Frc consts  --      0.1228                 0.1563                 0.3144
 IR Inten    --      5.4922                 2.6577                39.5172

                      7                      8                      9
                     A'                     A'                     A"
 Frequencies --    400.4748               445.0838               467.0867
 Red. masses --     10.4618                 7.0001                 2.5131
 Frc consts  --      0.9886                 0.8170                 0.3230
 IR Inten    --     13.7990                10.6859                23.9532

                     10                     11                     12
                     A'                     A'                     A"
 Frequencies --    546.7730               596.1524               643.8857
 Red. masses --      7.4185                 4.6435                 1.2021
 Frc consts  --      1.3067                 0.9723                 0.2936
 IR Inten    --      1.0453                 8.5359                39.6098

                     13                     14                     15
                     A"                     A"                     A'
 Frequencies --    693.7619               732.4603               740.6361
 Red. masses --      8.4993                 4.9582                 5.6014
 Frc consts  --      2.4102                 1.5673                 1.8103
 IR Inten    --     19.3960                 4.3711                 2.8200

                     16                     17                     18
                     A'                     A"                     A'
 Frequencies --    783.6655               944.7463               961.9738
 Red. masses --      5.7107                 1.3564                 1.9377
 Frc consts  --      2.0663                 0.7133                 1.0565
 IR Inten    --     17.0929                28.7278                99.1416

                     19                     20                     21
                     A'                     A"                     A'
 Frequencies --   1012.7214              1019.8034              1058.1892
 Red. masses --      2.1780                 1.6122                 1.4141
 Frc consts  --      1.3161                 0.9879                 0.9330
 IR Inten    --     22.2027                17.5506               357.5715

                     22                     23                     24
                     A'                     A'                     A'
 Frequencies --   1184.5842              1242.5417              1358.1825
 Red. masses --      3.9184                 3.2208                 2.0402
 Frc consts  --      3.2396                 2.9298                 2.2174
 IR Inten    --      9.2991                33.3668                90.6438

                     25                     26                     27
                     A'                     A'                     A'
 Frequencies --   1375.6327              1402.6921              1426.6836
 Red. masses --      1.2445                 1.8070                 3.1808
 Frc consts  --      1.3876                 2.0947                 3.8145
 IR Inten    --    151.9012                49.2226                22.7342

                     28                     29                     30
                     A'                     A"                     A'
 Frequencies --   1449.8666              1451.5549              1471.0750
 Red. masses --      3.2027                 1.0468                 1.1478
 Frc consts  --      3.9666                 1.2995                 1.4634
 IR Inten    --     42.5954                 1.8059                13.1384

                     31                     32                     33
                     A'                     A'                     A'
 Frequencies --   1676.2072              1744.7379              1768.7068
 Red. masses --      6.5219                 7.1430                10.9263
 Frc consts  --     10.7964                12.8112                20.1389
 IR Inten    --     56.1929               244.9358               144.1625

                     34                     35                     36
                     A'                     A'                     A"
 Frequencies --   3051.6156              3062.4665              3124.0459
 Red. masses --      1.0798                 1.0465                 1.0972
 Frc consts  --      5.9242                 5.7829                 6.3093
 IR Inten    --    829.1363               150.0240                 8.3450

                     37                     38                     39
                     A'                     A'                     A'
 Frequencies --   3144.7434              3283.6754              3616.3571
 Red. masses --      1.1041                 1.0875                 1.0782
 Frc consts  --      6.4334                 6.9085                 8.3081
 IR Inten    --      3.4965              3164.4891                19.9619

 - Thermochemistry -
 -------------------
 Temperature   298.150 Kelvin.  Pressure   1.00000 Atm.
 Atom     1 has atomic number  7 and mass  14.00307

 Molecular mass:   126.04293 amu.
 Principal axes and moments of inertia in atomic units:
                           1         2         3
     Eigenvalues --   559.665211279.418161828.03287
           X            0.78157   0.62381   0.00000
           Y           -0.62381   0.78157   0.00000
           Z            0.00000  -0.00000   1.00000
 This molecule is an asymmetric top.
 Rotational symmetry number  1.
 Warning -- assumption of classical behavior for rotation
           may cause significant error
 Rotational temperatures (Kelvin)      0.15476     0.06770     0.04738
 Rotational constants (GHZ):           3.22468     1.41060     0.98726
    2 imaginary frequencies ignored.
 Zero-point vibrational energy     292197.9 (Joules/Mol)
                                   69.83698 (Kcal/Mol)
 Warning -- explicit consideration of   9 degrees of freedom as
           vibrations may cause significant error
 Vibrational temperatures:    197.84   239.40   424.11   532.67   576.19
          (Kelvin)            640.38   672.03   786.68   857.73   926.41
                              998.17  1053.85  1065.61  1127.52  1359.28
                             1384.07  1457.08  1467.27  1522.50  1704.35
                             1787.74  1954.12  1979.23  2018.16  2052.68
                             2086.03  2088.46  2116.55  2411.69  2510.29
                             2544.77  4390.59  4406.21  4494.81  4524.58
                             4724.48  5203.13

 Zero-point correction=                           0.111292 (Hartree/Particle)
 Thermal correction to Energy=                    0.118159
 Thermal correction to Enthalpy=                  0.119103
 Thermal correction to Gibbs Free Energy=         0.079874
 Sum of electronic and zero-point Energies=           -453.744961
 Sum of electronic and thermal Energies=              -453.738095
 Sum of electronic and thermal Enthalpies=            -453.737151
 Sum of electronic and thermal Free Energies=         -453.776380

                     E (Thermal)             CV                S
                      KCal/Mol        Cal/Mol-Kelvin    Cal/Mol-Kelvin
 Total                   74.146             26.403             82.564
 Electronic               0.000              0.000              0.000
 Translational            0.889              2.981             40.408
 Rotational               0.889              2.981             28.661
 Vibrational             72.368             20.441             13.495
 Vibration     1          0.614              1.916              2.838
 Vibration     2          0.624              1.884              2.476
 Vibration     3          0.689              1.683              1.446
 Vibration     4          0.742              1.533              1.079
 Vibration     5          0.766              1.469              0.961
 Vibration     6          0.804              1.372              0.811
 Vibration     7          0.824              1.323              0.746
 Vibration     8          0.902              1.147              0.551
 Vibration     9          0.954              1.040              0.456

 Normal termination of Gaussian 16 at Fri Nov 25 12:02:14 2022.
