 Gaussian 16, Revision B.01,
 Gaussian 16:  ES64L-G16RevB.01 20-Dec-2017

 ----------------------------------------------------------------
 #p freq td=(nstates=10,root=4) cam-b3lyp/6-311+G(d,p) symm=loose
 ----------------------------------------------------------------

 -----------------------------
 Thymine TDDFT excited state 4
 -----------------------------
 Symbolic Z-matrix:
 Charge =  0 Multiplicity = 1

                         Standard orientation:
 ---------------------------------------------------------------------
 Center     Atomic      Atomic             Coordinates (Angstroms)
 Number     Number       Type             X           Y           Z
 ---------------------------------------------------------------------
      1          7           0        0.155734   -1.659062    0.000000
      2          6           0        1.356002   -0.978945    0.000000
      3          7           0        1.195950    0.391060    0.000000
      4          6           0       -0.000000    1.115359    0.000000
      5          6           0       -1.214288    0.295879    0.000000
      6          6           0       -1.073627   -1.037299    0.000000
      7          8           0        2.431070   -1.530595    0.000000
      8          8           0        0.017636    2.326209    0.000000
      9          1           0        0.230272   -2.664179    0.000000
     10          1           0        2.049840    0.933880    0.000000
     11          6           0       -2.533447    1.000264    0.000000
     12          1           0       -1.925029   -1.706110    0.000000
     13          1           0       -3.358140    0.286495    0.000000
     14          1           0       -2.628104    1.644735    0.876132
     15          1           0       -2.628104    1.644735   -0.876132
 ---------------------------------------------------------------------

 SCF Done:  E(RCAM-B3LYP) =  -454.074711543     A.U. after   15 cycles

 Excitation energies and oscillator strengths:

 Excited State   1:      Singlet-A"     5.1426 eV  241.09 nm  f=0.0000  <S**2>=0.000
      30 -> 34        -0.18938
      32 -> 34         0.62803
      32 -> 38        -0.20909

 Excited State   2:      Singlet-A'     5.3144 eV  233.30 nm  f=0.1912  <S**2>=0.000
      33 -> 34         0.69017

 Excited State   3:      Singlet-A"     5.9445 eV  208.57 nm  f=0.0006  <S**2>=0.000
      33 -> 35         0.69012

 Excited State   4:      Singlet-A"     6.4658 eV  191.76 nm  f=0.0000  <S**2>=0.000
      30 -> 34         0.25974
      30 -> 38         0.38301
      30 -> 39        -0.20254
      30 -> 52         0.11665
      32 -> 34         0.16494
      32 -> 38         0.39748
      32 -> 39        -0.17721
 This state for optimization and/or second-order correction.
 Total Energy, E(TD-HF/TD-DFT) =  -453.837099413
 Copying the excited state density for this state as the 1-particle RhoCI density.

 Excited State   5:      Singlet-A'     6.6748 eV  185.75 nm  f=0.0547  <S**2>=0.000
      31 -> 34         0.68634

 Excited State   6:      Singlet-A'     6.7315 eV  184.19 nm  f=0.2185  <S**2>=0.000
      33 -> 38         0.66365
      33 -> 39        -0.18842

 Excited State   7:      Singlet-A"     6.7793 eV  182.89 nm  f=0.0013  <S**2>=0.000
      33 -> 36         0.27388
      33 -> 37         0.59719
      33 -> 41        -0.19371

 Excited State   8:      Singlet-A"     6.9269 eV  178.99 nm  f=0.0000  <S**2>=0.000
      33 -> 36         0.61027
      33 -> 37        -0.27521
      33 -> 40        -0.12310

 Excited State   9:      Singlet-A"     7.1731 eV  172.85 nm  f=0.0007  <S**2>=0.000
      30 -> 34         0.61444
      30 -> 38        -0.20747
      32 -> 34         0.14621
      32 -> 38        -0.19627

 Excited State  10:      Singlet-A'     7.3422 eV  168.86 nm  f=0.0103  <S**2>=0.000
      32 -> 35        -0.28799
      32 -> 37         0.29123
      33 -> 38         0.13451
      33 -> 39         0.52305

 The electronic state is 1-A'.
 Alpha  occ. eigenvalues --  -19.18506 -19.18389 -14.46254 -14.44870 -10.40961
 Alpha  occ. eigenvalues --  -10.37656 -10.33047 -10.27865 -10.25540  -1.17874
 Alpha  occ. eigenvalues --   -1.14626  -1.07595  -1.02248  -0.91389  -0.80632
 Alpha  occ. eigenvalues --   -0.76868  -0.75140  -0.65566  -0.65174  -0.60221
 Alpha  occ. eigenvalues --   -0.57170  -0.55457  -0.52377  -0.51058  -0.50867
 Alpha  occ. eigenvalues --   -0.48264  -0.47949  -0.46529  -0.43743  -0.37633
 Alpha  occ. eigenvalues --   -0.36263  -0.34676  -0.31071
 Alpha virt. eigenvalues --   -0.00845   0.00927   0.03499   0.03649   0.04544
 Alpha virt. eigenvalues --    0.05658   0.06162   0.07298   0.07681   0.08723
 Alpha virt. eigenvalues --    0.09828   0.10048   0.10770   0.12155   0.13774

 Mulliken charges:
               1
     1  N   -0.393585
     2  C    0.416849
     3  N   -0.449668
     4  C    0.108923
     5  C    0.592095
     6  C   -0.297182
     7  O   -0.372486
     8  O   -0.335398
     9  H    0.334676
    10  H    0.347380
    11  C   -0.566122
    12  H    0.144178
    13  H    0.129683
    14  H    0.170329
    15  H    0.170329
 Sum of Mulliken charges =  -0.00000

 Dipole moment (field-independent basis, Debye):
    X=             -3.5246    Y=             -2.8845    Z=             -0.0000  Tot=              4.5544
 Quadrupole moment (field-independent basis, Debye-Ang):
   XX=            -55.0426   YY=            -56.7035   ZZ=            -52.9440
   XY=              8.5553   XZ=              0.0000   YZ=             -0.0000

  Exact polarizability: 131.707 -36.924 126.605   0.000   0.000  50.963
 Approx polarizability:  94.946 -11.033 120.912   0.000  -0.000  57.485

 ******    4 imaginary frequencies (negative Signs) ******

                      1                      2                      3
                     A"                     A"                     A'
 Frequencies --  -1002.4006              -272.5002              -117.8689
 Red. masses --     12.3774                 6.1523                 9.7519
 Frc consts  --      7.3276                 0.2692                 0.0798
 IR Inten    --     19.2961                 4.0597                 9.8139

                      4                      5                      6
                     A"                     A"                     A"
 Frequencies --    -95.1610                49.2040                83.8899
 Red. masses --      4.7665                 1.3834                 1.6207
 Frc consts  --      0.0254                 0.0020                 0.0067
 IR Inten    --     15.8542                31.4958                27.3082

                      7                      8                      9
                     A"                     A'                     A"
 Frequencies --    187.1392               278.1391               319.8297
 Red. masses --      2.5547                 3.2903                 1.1560
 Frc consts  --      0.0527                 0.1500                 0.0697
 IR Inten    --      9.8150                 4.1709                33.6103

                     10                     11                     12
                     A"                     A'                     A'
 Frequencies --    410.2175               429.6667               494.5336
 Red. masses --      1.6241                 6.3333                 6.7174
 Frc consts  --      0.1610                 0.6889                 0.9679
 IR Inten    --     54.4936                13.9527               164.6334

                     13                     14                     15
                     A'                     A'                     A"
 Frequencies --    571.5049               657.2774               697.6225
 Red. masses --      7.0703                 6.2859                 7.6097
 Frc consts  --      1.3606                 1.6000                 2.1820
 IR Inten    --      7.0052               577.7000                12.5439

                     16                     17                     18
                     A'                     A"                     A'
 Frequencies --    737.1780               840.6388               845.2213
 Red. masses --      4.5775                 1.3056                 6.9239
 Frc consts  --      1.4656                 0.5436                 2.9143
 IR Inten    --     22.6366                21.7189                81.3734

                     19                     20                     21
                     A'                     A'                     A"
 Frequencies --   1000.4620              1061.8476              1066.1579
 Red. masses --      1.6734                 4.8001                 1.3682
 Frc consts  --      0.9868                 3.1888                 0.9163
 IR Inten    --     23.2495                24.0352                 0.0017

                     22                     23                     24
                     A'                     A'                     A'
 Frequencies --   1177.7021              1242.0611              1330.4160
 Red. masses --      2.0148                 4.6729                 1.6285
 Frc consts  --      1.6465                 4.2474                 1.6983
 IR Inten    --     42.2983               101.4787                72.7361

                     25                     26                     27
                     A'                     A'                     A"
 Frequencies --   1394.1501              1426.9283              1471.9648
 Red. masses --      2.2484                 1.2810                 1.0406
 Frc consts  --      2.5748                 1.5367                 1.3284
 IR Inten    --      5.7050                 3.1236                 8.8465

                     28                     29                     30
                     A'                     A'                     A'
 Frequencies --   1472.3415              1500.3643              1505.5246
 Red. masses --      1.8612                 1.4645                 1.0668
 Frc consts  --      2.3771                 1.9423                 1.4246
 IR Inten    --      2.0500                 1.4239                 7.3300

                     31                     32                     33
                     A'                     A'                     A'
 Frequencies --   1691.0540              1765.2400              1861.7375
 Red. masses --      6.6022                 8.8758                12.1523
 Frc consts  --     11.1238                16.2954                24.8169
 IR Inten    --    176.2790                29.8117               385.0846

                     34                     35                     36
                     A'                     A"                     A'
 Frequencies --   3051.2502              3101.8592              3133.6369
 Red. masses --      1.0348                 1.1021                 1.1034
 Frc consts  --      5.6764                 6.2477                 6.3837
 IR Inten    --     52.0075                21.3823                12.1231

                     37                     38                     39
                     A'                     A'                     A'
 Frequencies --   3214.7756              3617.3469              3662.5820
 Red. masses --      1.0919                 1.0763                 1.0776
 Frc consts  --      6.6486                 8.2982                 8.5166
 IR Inten    --     12.4574                60.5839               134.1402

 - Thermochemistry -
 -------------------
 Temperature   298.150 Kelvin.  Pressure   1.00000 Atm.
 Atom     1 has atomic number  7 and mass  14.00307

 Molecular mass:   126.04293 amu.
 Principal axes and moments of inertia in atomic units:
                           1         2         3
     Eigenvalues --   559.665211279.418161828.03287
           X            0.78157   0.62381   0.00000
           Y           -0.62381   0.78157   0.00000
           Z            0.00000  -0.00000   1.00000
 This molecule is an asymmetric top.
 Rotational symmetry number  1.
 Warning -- assumption of classical behavior for rotation
           may cause significant error
 Rotational temperatures (Kelvin)      0.15476     0.06770     0.04738
 Rotational constants (GHZ):           3.22468     1.41060     0.98726
    4 imaginary frequencies ignored.
 Zero-point vibrational energy     283224.7 (Joules/Mol)
                                   67.69232 (Kcal/Mol)
 Warning -- explicit consideration of   9 degrees of freedom as
           vibrations may cause significant error
 Vibrational temperatures:     70.79   120.70   269.25   400.18   460.16
          (Kelvin)            590.21   618.19   711.52   822.27   945.68
                             1003.72  1060.63  1209.49  1216.08  1439.44
                             1527.76  1533.96  1694.45  1787.05  1914.17
                             2005.87  2053.03  2117.83  2118.37  2158.69
                             2166.11  2433.05  2539.79  2678.63  4390.07
                             4462.88  4508.60  4625.35  5204.56  5269.64

 Zero-point correction=                           0.107875 (Hartree/Particle)
 Thermal correction to Energy=                    0.115374
 Thermal correction to Enthalpy=                  0.116318
 Thermal correction to Gibbs Free Energy=         0.074740
 Sum of electronic and zero-point Energies=           -453.729225
 Sum of electronic and thermal Energies=              -453.721725
 Sum of electronic and thermal Enthalpies=            -453.720781
 Sum of electronic and thermal Free Energies=         -453.762360

                     E (Thermal)             CV                S
                      KCal/Mol        Cal/Mol-Kelvin    Cal/Mol-Kelvin
 Total                   72.398             26.126             87.509
 Electronic               0.000              0.000              0.000
 Translational            0.889              2.981             40.408
 Rotational               0.889              2.981             28.661
 Vibrational             70.621             20.165             18.440
 Vibration     1          0.595              1.978              4.849
 Vibration     2          0.601              1.960              3.798
 Vibration     3          0.632              1.857              2.256
 Vibration     4          0.679              1.714              1.545
 Vibration     5          0.706              1.636              1.311
 Vibration     6          0.774              1.448              0.926
 Vibration     7          0.791              1.406              0.860
 Vibration     8          0.850              1.262              0.672
 Vibration     9          0.928              1.093              0.501

 Normal termination of Gaussian 16 at Fri Nov 25 12:03:11 2022.
