 Gaussian 16, Revision B.01,
 Gaussian 16:  ES64L-G16RevB.01 20-Dec-2017

 ----------------------------------------------------------------------
 #p freq td=(nstates=10,root=3) cam-b3lyp/6-311+g(d,p) scrf=(solvent=wa
 ter,pcm) symm=loose
 ----------------------------------------------------------------------

 --------------------
 Thymine solvated ES3
 --------------------
 Symbolic Z-matrix:
 Charge =  0 Multiplicity = 1

                         Standard orientation:
 ---------------------------------------------------------------------
 Center     Atomic      Atomic             Coordinates (Angstroms)
 Number     Number       Type             X           Y           Z
 ---------------------------------------------------------------------
      1          7           0       -0.231165   -0.035141   -0.187654
      2          6           0        1.096368   -0.361997   -0.138091
      3          7           0        1.943485    0.693041    0.000329
      4          6           0        1.507124    1.988439    0.094046
      5          6           0        0.203040    2.318540    0.062719
      6          6           0       -0.757961    1.241995   -0.079486
      7          1           0       -0.888783   -0.813428   -0.333259
      8          8           0        1.493654   -1.526624   -0.212117
      9          1           0        2.937877    0.460731    0.032007
     10          1           0        2.289814    2.727806    0.199297
     11          8           0       -1.975809    1.412395   -0.108376
     12          6           0       -0.298919    3.723573    0.170889
     13          1           0       -0.877522    4.000626   -0.712721
     14          1           0       -0.955054    3.837803    1.036180
     15          1           0        0.531928    4.421320    0.272664
     16          8           0       -2.156963   -2.189392   -0.545540
     17          1           0        0.535019   -3.051632    0.413739
     18          8           0        4.219759   -1.004201    0.052340
     19          1           0       -3.350109    0.329651    0.141206
     20          1           0       -2.956623   -1.696600   -0.248786
     21          1           0       -2.337461   -2.493339   -1.441344
     22          8           0       -0.116053   -3.712336    0.699184
     23          1           0       -0.953794   -3.345363    0.374927
     24          1           0        3.437732   -1.554816   -0.124989
     25          1           0        4.871171   -1.226959   -0.619765
     26          8           0       -4.008523   -0.394844    0.189792
     27          1           0       -4.416871   -0.344382    1.059404
 ---------------------------------------------------------------------

 SCF Done:  E(RCAM-B3LYP) =  -759.890860891     A.U. after   14 cycles

 Excitation energies and oscillator strengths:

 Excited State   1:      Singlet-A      5.0347 eV  246.26 nm  f=0.3780  <S**2>=0.000
      53 -> 54         0.69708

 Excited State   2:      Singlet-A      5.5334 eV  224.06 nm  f=0.0001  <S**2>=0.000
      49 -> 54        -0.16849
      52 -> 54         0.63591
      52 -> 56         0.18810

 Excited State   3:      Singlet-A      6.2726 eV  197.66 nm  f=0.4069  <S**2>=0.000
      53 -> 56         0.69206
 This state for optimization and/or second-order correction.
 Total Energy, E(TD-HF/TD-DFT) =  -759.660348900
 Copying the excited state density for this state as the 1-particle RhoCI density.

 Excited State   4:      Singlet-A      6.4811 eV  191.30 nm  f=0.0043  <S**2>=0.000
      53 -> 55         0.64782
      53 -> 57         0.10002
      53 -> 58        -0.12116
      53 -> 62        -0.19555

 Excited State   5:      Singlet-A      6.7639 eV  183.30 nm  f=0.2203  <S**2>=0.000
      50 -> 54         0.50670
      51 -> 54        -0.45107

 Excited State   6:      Singlet-A      6.7900 eV  182.60 nm  f=0.0013  <S**2>=0.000
      47 -> 56         0.14550
      49 -> 54        -0.20994
      49 -> 56         0.43850
      52 -> 54        -0.13914
      52 -> 56         0.40577

 Excited State   7:      Singlet-A      7.1339 eV  173.80 nm  f=0.0028  <S**2>=0.000
      53 -> 57         0.62464
      53 -> 58         0.14178
      53 -> 60        -0.20251
      53 -> 62         0.10852

 Excited State   8:      Singlet-A      7.2536 eV  170.93 nm  f=0.0014  <S**2>=0.000
      53 -> 55         0.10836
      53 -> 57        -0.10207
      53 -> 58         0.64097
      53 -> 60         0.14039

 Excited State   9:      Singlet-A      7.3988 eV  167.57 nm  f=0.0010  <S**2>=0.000
      47 -> 54         0.11378
      49 -> 54         0.61117
      49 -> 56         0.13383
      52 -> 54         0.12423
      52 -> 56         0.20383

 Excited State  10:      Singlet-A      7.5158 eV  164.96 nm  f=0.1760  <S**2>=0.000
      50 -> 56        -0.29460
      51 -> 56         0.26971
      53 -> 59         0.53685

 The electronic state is 1-A.
 Alpha  occ. eigenvalues --  -19.21016 -19.20613 -19.20544 -19.19873 -19.19593
 Alpha  occ. eigenvalues --  -19.17490 -14.45664 -14.45096 -10.41842 -10.38600
 Alpha  occ. eigenvalues --  -10.32422 -10.27438 -10.24779  -1.18544  -1.15296
 Alpha  occ. eigenvalues --   -1.11202  -1.10210  -1.09565  -1.07898  -1.07002
 Alpha  occ. eigenvalues --   -1.02532  -0.91064  -0.80273  -0.76920  -0.75276
 Alpha  occ. eigenvalues --   -0.65771  -0.65397  -0.62831  -0.61930  -0.61378
 Alpha  occ. eigenvalues --   -0.60076  -0.58872  -0.57565  -0.55876  -0.53779
 Alpha  occ. eigenvalues --   -0.51778  -0.51004  -0.50075  -0.48221  -0.47884
 Alpha  occ. eigenvalues --   -0.47196  -0.46385  -0.45833  -0.44019  -0.43403
 Alpha  occ. eigenvalues --   -0.41109  -0.40342  -0.39903  -0.38465  -0.37390
 Alpha  occ. eigenvalues --   -0.37136  -0.36308  -0.31008
 Alpha virt. eigenvalues --   -0.00976   0.02635   0.03431   0.03887   0.04305
 Alpha virt. eigenvalues --    0.06050   0.06465   0.07121   0.07329   0.08949
 Alpha virt. eigenvalues --    0.09487   0.09852   0.10411   0.11410   0.12796

 Mulliken charges:
               1
     1  N   -0.507981
     2  C    0.481290
     3  N   -0.406504
     4  C   -0.305382
     5  C    0.714028
     6  C    0.001710
     7  H    0.439260
     8  O   -0.508716
     9  H    0.428947
    10  H    0.184959
    11  O   -0.436596
    12  C   -0.575396
    13  H    0.167501
    14  H    0.168580
    15  H    0.156694
    16  O   -0.709786
    17  H    0.326295
    18  O   -0.593985
    19  H    0.357321
    20  H    0.395293
    21  H    0.305880
    22  O   -0.679911
    23  H    0.349875
    24  H    0.296660
    25  H    0.305179
    26  O   -0.663903
    27  H    0.308686
 Sum of Mulliken charges =  -0.00000

 Dipole moment (field-independent basis, Debye):
    X=              2.5129    Y=              7.5757    Z=             -2.3615  Tot=              8.3236
 Quadrupole moment (field-independent basis, Debye-Ang):
   XX=            -69.9571   YY=            -95.7872   ZZ=            -77.4642
   XY=             10.9442   XZ=            -11.5466   YZ=             12.4380

  Exact polarizability: 190.897 -56.531 228.744  -6.485   7.888 114.526
 Approx polarizability: 154.522 -12.125 133.280   0.007   3.648  89.933

 ******    6 imaginary frequencies (negative Signs) ******

                      1                      2                      3
                      A                      A                      A
 Frequencies --  -1451.2594              -288.6284              -205.1386
 Red. masses --     10.4138                 5.3086                 3.6280
 Frc consts  --     12.9226                 0.2606                 0.0900
 IR Inten    --    293.7864                24.4010                 0.2176

                      4                      5                      6
                      A                      A                      A
 Frequencies --   -160.0169               -82.4883                -8.7928
 Red. masses --      1.2702                 6.6171                 6.4242
 Frc consts  --      0.0192                 0.0265                 0.0003
 IR Inten    --      2.5960                 5.1288                 7.6587

                      7                      8                      9
                      A                      A                      A
 Frequencies --     41.3893                51.0617                58.4355
 Red. masses --      5.5436                 6.4303                 6.1259
 Frc consts  --      0.0056                 0.0099                 0.0123
 IR Inten    --      7.6365                 4.1345                 0.9930

                     10                     11                     12
                      A                      A                      A
 Frequencies --     78.0683               134.2365               141.6310
 Red. masses --      5.0102                 6.8003                 6.5945
 Frc consts  --      0.0180                 0.0722                 0.0779
 IR Inten    --     80.7034                 3.8818                19.9110

                     13                     14                     15
                      A                      A                      A
 Frequencies --    166.1100               170.8899               183.1643
 Red. masses --      5.0978                 6.0933                 6.3489
 Frc consts  --      0.0829                 0.1048                 0.1255
 IR Inten    --      4.5075                 4.7625                 5.9644

                     16                     17                     18
                      A                      A                      A
 Frequencies --    194.5673               233.2789               252.4383
 Red. masses --      2.8522                 1.1503                 1.1090
 Frc consts  --      0.0636                 0.0369                 0.0416
 IR Inten    --     13.6307               178.5900               194.6415

                     19                     20                     21
                      A                      A                      A
 Frequencies --    276.4577               282.4434               305.8711
 Red. masses --      2.5262                 5.0614                 2.9413
 Frc consts  --      0.1138                 0.2379                 0.1621
 IR Inten    --     47.6879                18.0423                 2.8920

                     22                     23                     24
                      A                      A                      A
 Frequencies --    322.0857               331.8966               360.5006
 Red. masses --      1.1632                 1.3205                 5.8747
 Frc consts  --      0.0711                 0.0857                 0.4498
 IR Inten    --     40.7543               298.6771                88.2142

                     25                     26                     27
                      A                      A                      A
 Frequencies --    395.3217               409.9554               431.6520
 Red. masses --      1.1015                 5.5971                 1.0959
 Frc consts  --      0.1014                 0.5542                 0.1203
 IR Inten    --     46.4577                10.7092                84.0529

                     28                     29                     30
                      A                      A                      A
 Frequencies --    438.8284               466.0141               533.0572
 Red. masses --      5.4622                 1.0843                 1.0663
 Frc consts  --      0.6197                 0.1387                 0.1785
 IR Inten    --     54.2504               148.2532                21.8999

                     31                     32                     33
                      A                      A                      A
 Frequencies --    561.5470               577.9072               593.5755
 Red. masses --      4.7091                 1.7065                 2.1373
 Frc consts  --      0.8749                 0.3358                 0.4437
 IR Inten    --     33.8485               199.0647                75.5408

                     34                     35                     36
                      A                      A                      A
 Frequencies --    614.4286               628.8314               680.9053
 Red. masses --      1.1598                 1.0770                 1.0702
 Frc consts  --      0.2580                 0.2509                 0.2923
 IR Inten    --    335.4054               438.7917               240.4503

                     37                     38                     39
                      A                      A                      A
 Frequencies --    756.0247               791.9143               847.0072
 Red. masses --      4.8051                 6.9124                 1.0758
 Frc consts  --      1.6182                 2.5541                 0.4547
 IR Inten    --     40.0169                20.4905               223.6942

                     40                     41                     42
                      A                      A                      A
 Frequencies --    902.7804               940.8607               968.2989
 Red. masses --      1.0762                 1.2766                 2.4424
 Frc consts  --      0.5168                 0.6658                 1.3492
 IR Inten    --    162.2787                 0.1036                70.7216

                     43                     44                     45
                      A                      A                      A
 Frequencies --    993.2224              1018.4419              1174.7402
 Red. masses --      1.3956                 1.8762                 5.6104
 Frc consts  --      0.8111                 1.1466                 4.5617
 IR Inten    --      6.6036               189.3199                34.6178

                     46                     47                     48
                      A                      A                      A
 Frequencies --   1197.4772              1317.5914              1366.2221
 Red. masses --      2.4683                 1.8427                 1.1523
 Frc consts  --      2.0854                 1.8848                 1.2672
 IR Inten    --    108.4859                28.3624                 4.7329

                     49                     50                     51
                      A                      A                      A
 Frequencies --   1427.8940              1437.4290              1467.0841
 Red. masses --      1.0488                 1.7195                 1.3106
 Frc consts  --      1.2599                 2.0932                 1.6620
 IR Inten    --     18.6324                55.3440                32.4802

                     52                     53                     54
                      A                      A                      A
 Frequencies --   1475.1069              1517.8094              1569.8472
 Red. masses --      1.4868                 2.0074                 4.0354
 Frc consts  --      1.9061                 2.7247                 5.8594
 IR Inten    --     86.8972                41.1891               175.4054

                     55                     56                     57
                      A                      A                      A
 Frequencies --   1591.6113              1606.1242              1633.4253
 Red. masses --      1.1787                 1.0864                 1.0823
 Frc consts  --      1.7592                 1.6511                 1.7013
 IR Inten    --    131.4679               118.9140                62.4726

                     58                     59                     60
                      A                      A                      A
 Frequencies --   1670.1613              1726.7002              1762.3549
 Red. masses --      1.1243                 4.5281                 8.7753
 Frc consts  --      1.8477                 7.9543                16.0582
 IR Inten    --    417.0661               687.3377                51.5875

                     61                     62                     63
                      A                      A                      A
 Frequencies --   1790.8329              3038.3709              3050.9430
 Red. masses --      5.7878                 1.0361                 1.1019
 Frc consts  --     10.9364                 5.6354                 6.0429
 IR Inten    --    492.0238                35.4756                16.1967

                     64                     65                     66
                      A                      A                      A
 Frequencies --   3144.4627              3240.4974              3306.0285
 Red. masses --      1.1009                 1.0974                 1.0853
 Frc consts  --      6.4134                 6.7894                 6.9893
 IR Inten    --     18.1581                 1.7544               851.5850

                     67                     68                     69
                      A                      A                      A
 Frequencies --   3412.4531              3433.7815              3524.2299
 Red. masses --      1.0655                 1.0858                 1.0628
 Frc consts  --      7.3102                 7.5429                 7.7774
 IR Inten    --    887.7796              1358.0385              1277.9618

                     70                     71                     72
                      A                      A                      A
 Frequencies --   3652.2733              3675.6125              3725.4132
 Red. masses --      1.0591                 1.0517                 1.0780
 Frc consts  --      8.3233                 8.3714                 8.8146
 IR Inten    --    639.4644               785.5977               435.8394

                     73                     74                     75
                      A                      A                      A
 Frequencies --   3879.0949              3892.8165              3894.7640
 Red. masses --      1.0669                 1.0681                 1.0708
 Frc consts  --      9.4584                 9.5368                 9.5699
 IR Inten    --    137.6003               144.1367               173.3394

 - Thermochemistry -
 -------------------
 Temperature   298.150 Kelvin.  Pressure   1.00000 Atm.
 Atom     1 has atomic number  7 and mass  14.00307

 Molecular mass:   198.08519 amu.
 Principal axes and moments of inertia in atomic units:
                           1         2         3
     Eigenvalues --  2871.809173352.579786072.96554
           X            0.99931   0.03682  -0.00439
           Y           -0.03679   0.99930   0.00686
           Z            0.00464  -0.00669   0.99997
 This molecule is an asymmetric top.
 Rotational symmetry number  1.
 Warning -- assumption of classical behavior for rotation
           may cause significant error
 Rotational temperatures (Kelvin)      0.03016     0.02584     0.01426
 Rotational constants (GHZ):           0.62843     0.53831     0.29718
    6 imaginary frequencies ignored.
 Zero-point vibrational energy     548716.6 (Joules/Mol)
                                  131.14642 (Kcal/Mol)
 Warning -- explicit consideration of  28 degrees of freedom as
           vibrations may cause significant error
 Vibrational temperatures:     59.55    73.47    84.08   112.32   193.14
          (Kelvin)            203.78   239.00   245.87   263.53   279.94
                              335.64   363.20   397.76   406.37   440.08
                              463.41   477.53   518.68   568.78   589.83
                              621.05   631.38   670.49   766.95   807.94
                              831.48   854.02   884.03   904.75   979.67
                             1087.75  1139.39  1218.65  1298.90  1353.69
                             1393.17  1429.03  1465.31  1690.19  1722.90
                             1895.72  1965.69  2054.42  2068.14  2110.81
                             2122.35  2183.79  2258.66  2289.97  2310.85
                             2350.13  2402.99  2484.34  2535.64  2576.61
                             4371.54  4389.63  4524.18  4662.35  4756.64
                             4909.76  4940.45  5070.58  5254.81  5288.39
                             5360.04  5581.15  5600.89  5603.70

 Zero-point correction=                           0.208995 (Hartree/Particle)
 Thermal correction to Energy=                    0.225352
 Thermal correction to Enthalpy=                  0.226296
 Thermal correction to Gibbs Free Energy=         0.165322
 Sum of electronic and zero-point Energies=           -759.451354
 Sum of electronic and thermal Energies=              -759.434997
 Sum of electronic and thermal Enthalpies=            -759.434053
 Sum of electronic and thermal Free Energies=         -759.495027

                     E (Thermal)             CV                S
                      KCal/Mol        Cal/Mol-Kelvin    Cal/Mol-Kelvin
 Total                  141.410             58.405            128.331
 Electronic               0.000              0.000              0.000
 Translational            0.889              2.981             41.755
 Rotational               0.889              2.981             32.436
 Vibrational            139.633             52.444             54.140
 Vibration     1          0.594              1.981              5.191
 Vibration     2          0.595              1.977              4.776
 Vibration     3          0.596              1.974              4.509
 Vibration     4          0.599              1.964              3.939
 Vibration     5          0.613              1.919              2.884
 Vibration     6          0.615              1.912              2.782
 Vibration     7          0.624              1.884              2.479
 Vibration     8          0.626              1.878              2.426
 Vibration     9          0.631              1.863              2.296
 Vibration    10          0.635              1.847              2.184
 Vibration    11          0.654              1.790              1.854
 Vibration    12          0.664              1.759              1.713
 Vibration    13          0.678              1.717              1.555
 Vibration    14          0.681              1.706              1.519
 Vibration    15          0.696              1.663              1.385
 Vibration    16          0.707              1.631              1.299
 Vibration    17          0.714              1.612              1.251
 Vibration    18          0.735              1.554              1.120
 Vibration    19          0.762              1.480              0.980
 Vibration    20          0.774              1.449              0.927
 Vibration    21          0.793              1.401              0.853
 Vibration    22          0.799              1.386              0.830
 Vibration    23          0.823              1.325              0.749
 Vibration    24          0.888              1.177              0.580
 Vibration    25          0.917              1.114              0.521
 Vibration    26          0.934              1.079              0.489
 Vibration    27          0.951              1.045              0.461
 Vibration    28          0.974              1.001              0.425

 Normal termination of Gaussian 16 at Thu Jan  5 15:10:30 2023.
