 Gaussian 16, Revision B.01,
 Gaussian 16:  ES64L-G16RevB.01 20-Dec-2017

 ----------------------------------------------------------------------
 #p freq td=(nstates=10,root=2) cam-b3lyp/6-311+g(d,p) scrf=(solvent=wa
 ter,pcm) symm=loose
 ----------------------------------------------------------------------

 --------------------
 Thymine solvated ES2
 --------------------
 Symbolic Z-matrix:
 Charge =  0 Multiplicity = 1

                         Standard orientation:
 ---------------------------------------------------------------------
 Center     Atomic      Atomic             Coordinates (Angstroms)
 Number     Number       Type             X           Y           Z
 ---------------------------------------------------------------------
      1          7           0       -0.231165   -0.035141   -0.187654
      2          6           0        1.096368   -0.361997   -0.138091
      3          7           0        1.943485    0.693041    0.000329
      4          6           0        1.507124    1.988439    0.094046
      5          6           0        0.203040    2.318540    0.062719
      6          6           0       -0.757961    1.241995   -0.079486
      7          1           0       -0.888783   -0.813428   -0.333259
      8          8           0        1.493654   -1.526624   -0.212117
      9          1           0        2.937877    0.460731    0.032007
     10          1           0        2.289814    2.727806    0.199297
     11          8           0       -1.975809    1.412395   -0.108376
     12          6           0       -0.298919    3.723573    0.170889
     13          1           0       -0.877522    4.000626   -0.712721
     14          1           0       -0.955054    3.837803    1.036180
     15          1           0        0.531928    4.421320    0.272664
     16          8           0       -2.156963   -2.189392   -0.545540
     17          1           0        0.535019   -3.051632    0.413739
     18          8           0        4.219759   -1.004201    0.052340
     19          1           0       -3.350109    0.329651    0.141206
     20          1           0       -2.956623   -1.696600   -0.248786
     21          1           0       -2.337461   -2.493339   -1.441344
     22          8           0       -0.116053   -3.712336    0.699184
     23          1           0       -0.953794   -3.345363    0.374927
     24          1           0        3.437732   -1.554816   -0.124989
     25          1           0        4.871171   -1.226959   -0.619765
     26          8           0       -4.008523   -0.394844    0.189792
     27          1           0       -4.416871   -0.344382    1.059404
 ---------------------------------------------------------------------

 SCF Done:  E(RCAM-B3LYP) =  -759.890860891     A.U. after   14 cycles

 Excitation energies and oscillator strengths:

 Excited State   1:      Singlet-A      5.0347 eV  246.26 nm  f=0.3780  <S**2>=0.000
      53 -> 54         0.69708

 Excited State   2:      Singlet-A      5.5334 eV  224.06 nm  f=0.0001  <S**2>=0.000
      49 -> 54        -0.16849
      52 -> 54         0.63591
      52 -> 56         0.18810
 This state for optimization and/or second-order correction.
 Total Energy, E(TD-HF/TD-DFT) =  -759.687511410
 Copying the excited state density for this state as the 1-particle RhoCI density.

 Excited State   3:      Singlet-A      6.2726 eV  197.66 nm  f=0.4069  <S**2>=0.000
      53 -> 56         0.69206

 Excited State   4:      Singlet-A      6.4811 eV  191.30 nm  f=0.0043  <S**2>=0.000
      53 -> 55         0.64782
      53 -> 57         0.10002
      53 -> 58        -0.12116
      53 -> 62        -0.19555

 Excited State   5:      Singlet-A      6.7639 eV  183.30 nm  f=0.2203  <S**2>=0.000
      50 -> 54         0.50670
      51 -> 54        -0.45107

 Excited State   6:      Singlet-A      6.7900 eV  182.60 nm  f=0.0013  <S**2>=0.000
      47 -> 56         0.14550
      49 -> 54        -0.20994
      49 -> 56         0.43850
      52 -> 54        -0.13914
      52 -> 56         0.40577

 Excited State   7:      Singlet-A      7.1339 eV  173.80 nm  f=0.0028  <S**2>=0.000
      53 -> 57         0.62464
      53 -> 58         0.14178
      53 -> 60        -0.20251
      53 -> 62         0.10852

 Excited State   8:      Singlet-A      7.2536 eV  170.93 nm  f=0.0014  <S**2>=0.000
      53 -> 55         0.10836
      53 -> 57        -0.10207
      53 -> 58         0.64097
      53 -> 60         0.14039

 Excited State   9:      Singlet-A      7.3988 eV  167.57 nm  f=0.0010  <S**2>=0.000
      47 -> 54         0.11378
      49 -> 54         0.61117
      49 -> 56         0.13383
      52 -> 54         0.12423
      52 -> 56         0.20383

 Excited State  10:      Singlet-A      7.5158 eV  164.96 nm  f=0.1760  <S**2>=0.000
      50 -> 56        -0.29460
      51 -> 56         0.26971
      53 -> 59         0.53685

 The electronic state is 1-A.
 Alpha  occ. eigenvalues --  -19.21016 -19.20613 -19.20544 -19.19873 -19.19593
 Alpha  occ. eigenvalues --  -19.17490 -14.45664 -14.45096 -10.41842 -10.38600
 Alpha  occ. eigenvalues --  -10.32422 -10.27438 -10.24779  -1.18544  -1.15296
 Alpha  occ. eigenvalues --   -1.11202  -1.10210  -1.09565  -1.07898  -1.07002
 Alpha  occ. eigenvalues --   -1.02532  -0.91064  -0.80273  -0.76920  -0.75276
 Alpha  occ. eigenvalues --   -0.65771  -0.65397  -0.62831  -0.61930  -0.61378
 Alpha  occ. eigenvalues --   -0.60076  -0.58872  -0.57565  -0.55876  -0.53779
 Alpha  occ. eigenvalues --   -0.51778  -0.51004  -0.50075  -0.48221  -0.47884
 Alpha  occ. eigenvalues --   -0.47196  -0.46385  -0.45833  -0.44019  -0.43403
 Alpha  occ. eigenvalues --   -0.41109  -0.40342  -0.39903  -0.38465  -0.37390
 Alpha  occ. eigenvalues --   -0.37136  -0.36308  -0.31008
 Alpha virt. eigenvalues --   -0.00976   0.02635   0.03431   0.03887   0.04305
 Alpha virt. eigenvalues --    0.06050   0.06465   0.07121   0.07329   0.08949
 Alpha virt. eigenvalues --    0.09487   0.09852   0.10411   0.11410   0.12796

 Mulliken charges:
               1
     1  N   -0.507981
     2  C    0.481290
     3  N   -0.406504
     4  C   -0.305382
     5  C    0.714028
     6  C    0.001710
     7  H    0.439260
     8  O   -0.508716
     9  H    0.428947
    10  H    0.184959
    11  O   -0.436596
    12  C   -0.575396
    13  H    0.167501
    14  H    0.168580
    15  H    0.156694
    16  O   -0.709786
    17  H    0.326295
    18  O   -0.593985
    19  H    0.357321
    20  H    0.395293
    21  H    0.305880
    22  O   -0.679911
    23  H    0.349875
    24  H    0.296660
    25  H    0.305179
    26  O   -0.663903
    27  H    0.308686
 Sum of Mulliken charges =  -0.00000

 Dipole moment (field-independent basis, Debye):
    X=              2.5129    Y=              7.5757    Z=             -2.3615  Tot=              8.3236
 Quadrupole moment (field-independent basis, Debye-Ang):
   XX=            -69.9571   YY=            -95.7872   ZZ=            -77.4642
   XY=             10.9442   XZ=            -11.5466   YZ=             12.4380

  Exact polarizability: 190.301  -6.929 173.108   1.193   5.403 100.488
 Approx polarizability: 154.522 -12.125 133.280   0.007   3.648  89.933

 ******    4 imaginary frequencies (negative Signs) ******

                      1                      2                      3
                      A                      A                      A
 Frequencies --   -467.9109              -114.4164               -68.8222
 Red. masses --     12.1550                 8.0936                 4.7877
 Frc consts  --      1.5679                 0.0624                 0.0134
 IR Inten    --      5.3734                 0.5310                 6.3414

                      4                      5                      6
                      A                      A                      A
 Frequencies --    -36.0868                35.6614                48.7126
 Red. masses --      5.6643                 7.1700                 6.4386
 Frc consts  --      0.0043                 0.0054                 0.0090
 IR Inten    --      2.8742                 4.3426                 3.8574

                      7                      8                      9
                      A                      A                      A
 Frequencies --     65.8913                84.6210               111.9830
 Red. masses --      4.1435                 5.3340                 4.4537
 Frc consts  --      0.0106                 0.0225                 0.0329
 IR Inten    --      8.9951                30.3296                 2.9791

                     10                     11                     12
                      A                      A                      A
 Frequencies --    136.3833               137.9166               153.0911
 Red. masses --      3.4564                 3.4582                 1.8674
 Frc consts  --      0.0379                 0.0388                 0.0258
 IR Inten    --      6.1387                11.8877                 3.1418

                     13                     14                     15
                      A                      A                      A
 Frequencies --    160.8226               177.4234               182.7573
 Red. masses --      4.7132                 7.2972                 6.0217
 Frc consts  --      0.0718                 0.1353                 0.1185
 IR Inten    --      3.9563                 5.0580                42.3674

                     16                     17                     18
                      A                      A                      A
 Frequencies --    213.9710               224.7835               237.7643
 Red. masses --      1.1009                 1.1349                 5.7434
 Frc consts  --      0.0297                 0.0338                 0.1913
 IR Inten    --    184.7904               161.5061                19.5110

                     19                     20                     21
                      A                      A                      A
 Frequencies --    260.2301               286.5897               312.5147
 Red. masses --      3.6655                 5.0992                 1.1055
 Frc consts  --      0.1463                 0.2468                 0.0636
 IR Inten    --      0.2205                12.2086                72.6942

                     22                     23                     24
                      A                      A                      A
 Frequencies --    319.6886               325.1497               344.0176
 Red. masses --      1.9368                 1.2706                 1.3155
 Frc consts  --      0.1166                 0.0791                 0.0917
 IR Inten    --    163.9435                35.7544               105.2024

                     25                     26                     27
                      A                      A                      A
 Frequencies --    423.3809               451.6563               468.3955
 Red. masses --      1.0468                 1.3288                 2.8436
 Frc consts  --      0.1105                 0.1597                 0.3676
 IR Inten    --     45.5260                34.4432               135.0807

                     28                     29                     30
                      A                      A                      A
 Frequencies --    473.8444               515.7340               530.0912
 Red. masses --      3.6564                 4.0102                 1.1338
 Frc consts  --      0.4837                 0.6284                 0.1877
 IR Inten    --     20.5299                45.4799                28.8049

                     31                     32                     33
                      A                      A                      A
 Frequencies --    582.4084               593.1670               609.9154
 Red. masses --      5.0486                 1.1703                 1.0699
 Frc consts  --      1.0090                 0.2426                 0.2345
 IR Inten    --     16.5137               391.3191               387.5081

                     34                     35                     36
                      A                      A                      A
 Frequencies --    635.1127               697.5157               733.3074
 Red. masses --      1.0584                 1.1190                 1.4692
 Frc consts  --      0.2515                 0.3208                 0.4655
 IR Inten    --    186.5840                22.4947                49.2478

                     37                     38                     39
                      A                      A                      A
 Frequencies --    738.3141               747.1834               763.2264
 Red. masses --      3.4606                 2.4695                 1.4740
 Frc consts  --      1.1114                 0.8123                 0.5059
 IR Inten    --     13.3224                13.8555               513.2869

                     40                     41                     42
                      A                      A                      A
 Frequencies --    808.0447               896.8302               961.0360
 Red. masses --      6.5512                 1.0713                 2.8380
 Frc consts  --      2.5202                 0.5077                 1.5444
 IR Inten    --     35.6927               251.7032                21.5061

                     43                     44                     45
                      A                      A                      A
 Frequencies --   1028.9589              1076.9633              1178.3739
 Red. masses --      1.9267                 1.4197                 2.8786
 Frc consts  --      1.2018                 0.9702                 2.3550
 IR Inten    --      0.8462                 4.5122               122.0222

                     46                     47                     48
                      A                      A                      A
 Frequencies --   1206.5427              1290.3050              1306.2638
 Red. masses --      3.9381                 2.5207                 2.4928
 Frc consts  --      3.3777                 2.4726                 2.5061
 IR Inten    --     17.0235                41.2451                 3.3830

                     49                     50                     51
                      A                      A                      A
 Frequencies --   1402.5067              1426.1289              1476.9046
 Red. masses --      2.6440                 1.3152                 1.0384
 Frc consts  --      3.0642                 1.5760                 1.3346
 IR Inten    --    143.3920                 0.3043                13.9291

                     52                     53                     54
                      A                      A                      A
 Frequencies --   1493.6897              1528.7524              1556.4059
 Red. masses --      1.0618                 2.1439                 1.3492
 Frc consts  --      1.3958                 2.9521                 1.9257
 IR Inten    --      5.1379               133.6685                20.1107

                     55                     56                     57
                      A                      A                      A
 Frequencies --   1594.7495              1597.0807              1633.9434
 Red. masses --      1.0970                 1.0928                 1.0765
 Frc consts  --      1.6437                 1.6422                 1.6933
 IR Inten    --    370.4298                57.9483                44.3794

                     58                     59                     60
                      A                      A                      A
 Frequencies --   1640.2576              1672.8303              1698.9014
 Red. masses --      6.5576                 1.1324                 6.4772
 Frc consts  --     10.3949                 1.8671                11.0146
 IR Inten    --     58.5460               495.4318                71.9923

                     61                     62                     63
                      A                      A                      A
 Frequencies --   1750.7011              3057.4316              3113.8116
 Red. masses --      3.1405                 1.0368                 1.1023
 Frc consts  --      5.6711                 5.7103                 6.2968
 IR Inten    --    880.8865                31.4457                17.9268

                     64                     65                     66
                      A                      A                      A
 Frequencies --   3145.4443              3221.1585              3294.2434
 Red. masses --      1.1030                 1.0915                 1.0834
 Frc consts  --      6.4298                 6.6729                 6.9273
 IR Inten    --     15.3779                14.0516               985.0412

                     67                     68                     69
                      A                      A                      A
 Frequencies --   3424.0702              3440.4088              3582.0233
 Red. masses --      1.0644                 1.0824                 1.0586
 Frc consts  --      7.3529                 7.5483                 8.0027
 IR Inten    --    902.3257               708.8263               686.8377

                     70                     71                     72
                      A                      A                      A
 Frequencies --   3668.1247              3694.3965              3734.4771
 Red. masses --      1.0582                 1.0474                 1.0818
 Frc consts  --      8.3888                 8.4228                 8.8895
 IR Inten    --    485.3141               558.9041               458.1390

                     73                     74                     75
                      A                      A                      A
 Frequencies --   3879.7139              3896.5435              3896.7086
 Red. masses --      1.0669                 1.0703                 1.0704
 Frc consts  --      9.4618                 9.5744                 9.5765
 IR Inten    --    144.7835               317.2331                16.2854

 - Thermochemistry -
 -------------------
 Temperature   298.150 Kelvin.  Pressure   1.00000 Atm.
 Atom     1 has atomic number  7 and mass  14.00307

 Molecular mass:   198.08519 amu.
 Principal axes and moments of inertia in atomic units:
                           1         2         3
     Eigenvalues --  2871.809173352.579786072.96554
           X            0.99931   0.03682  -0.00439
           Y           -0.03679   0.99930   0.00686
           Z            0.00464  -0.00669   0.99997
 This molecule is an asymmetric top.
 Rotational symmetry number  1.
 Warning -- assumption of classical behavior for rotation
           may cause significant error
 Rotational temperatures (Kelvin)      0.03016     0.02584     0.01426
 Rotational constants (GHZ):           0.62843     0.53831     0.29718
    4 imaginary frequencies ignored.
 Zero-point vibrational energy     550628.8 (Joules/Mol)
                                  131.60345 (Kcal/Mol)
 Warning -- explicit consideration of  29 degrees of freedom as
           vibrations may cause significant error
 Vibrational temperatures:     51.31    70.09    94.80   121.75   161.12
          (Kelvin)            196.23   198.43   220.26   231.39   255.27
                              262.95   307.86   323.41   342.09   374.41
                              412.34   449.64   459.96   467.82   494.96
                              609.15   649.83   673.92   681.76   742.03
                              762.68   837.96   853.43   877.53   913.79
                             1003.57  1055.07  1062.27  1075.03  1098.11
                             1162.60  1290.34  1382.72  1480.44  1549.51
                             1695.42  1735.95  1856.46  1879.42  2017.89
                             2051.88  2124.94  2149.09  2199.53  2239.32
                             2294.49  2297.84  2350.88  2359.96  2406.83
                             2444.34  2518.87  4398.96  4480.08  4525.59
                             4634.53  4739.68  4926.47  4949.98  5153.73
                             5277.61  5315.41  5373.08  5582.04  5606.26
                             5606.49

 Zero-point correction=                           0.209723 (Hartree/Particle)
 Thermal correction to Energy=                    0.227277
 Thermal correction to Enthalpy=                  0.228222
 Thermal correction to Gibbs Free Energy=         0.164692
 Sum of electronic and zero-point Energies=           -759.477788
 Sum of electronic and thermal Energies=              -759.460234
 Sum of electronic and thermal Enthalpies=            -759.459290
 Sum of electronic and thermal Free Energies=         -759.522820

                     E (Thermal)             CV                S
                      KCal/Mol        Cal/Mol-Kelvin    Cal/Mol-Kelvin
 Total                  142.619             61.921            133.710
 Electronic               0.000              0.000              0.000
 Translational            0.889              2.981             41.755
 Rotational               0.889              2.981             32.436
 Vibrational            140.841             55.960             59.518
 Vibration     1          0.594              1.982              5.487
 Vibration     2          0.595              1.978              4.869
 Vibration     3          0.597              1.971              4.272
 Vibration     4          0.601              1.960              3.781
 Vibration     5          0.607              1.940              3.234
 Vibration     6          0.614              1.917              2.854
 Vibration     7          0.614              1.915              2.833
 Vibration     8          0.619              1.899              2.633
 Vibration     9          0.622              1.890              2.540
 Vibration    10          0.628              1.870              2.355
 Vibration    11          0.630              1.863              2.300
 Vibration    12          0.644              1.820              2.010
 Vibration    13          0.649              1.803              1.920
 Vibration    14          0.656              1.783              1.820
 Vibration    15          0.668              1.745              1.660
 Vibration    16          0.684              1.699              1.494
 Vibration    17          0.701              1.650              1.349
 Vibration    18          0.706              1.636              1.312
 Vibration    19          0.709              1.625              1.284
 Vibration    20          0.723              1.587              1.193
 Vibration    21          0.786              1.419              0.881
 Vibration    22          0.810              1.357              0.791
 Vibration    23          0.826              1.320              0.742
 Vibration    24          0.831              1.308              0.727
 Vibration    25          0.871              1.215              0.620
 Vibration    26          0.885              1.183              0.587
 Vibration    27          0.939              1.069              0.481
 Vibration    28          0.951              1.046              0.462
 Vibration    29          0.969              1.011              0.433

 Normal termination of Gaussian 16 at Thu Jan  5 15:10:43 2023.
