 Gaussian 16, Revision B.01,
 Gaussian 16:  ES64L-G16RevB.01 20-Dec-2017

 ----------------------------------------------------------------------
 #p freq td=(nstates=10,root=1) cam-b3lyp/6-311+g(d,p) scrf=(solvent=wa
 ter,pcm) symm=loose
 ----------------------------------------------------------------------

 --------------------
 Thymine solvated ES1
 --------------------
 Symbolic Z-matrix:
 Charge =  0 Multiplicity = 1

                         Standard orientation:
 ---------------------------------------------------------------------
 Center     Atomic      Atomic             Coordinates (Angstroms)
 Number     Number       Type             X           Y           Z
 ---------------------------------------------------------------------
      1          7           0       -0.231165   -0.035141   -0.187654
      2          6           0        1.096368   -0.361997   -0.138091
      3          7           0        1.943485    0.693041    0.000329
      4          6           0        1.507124    1.988439    0.094046
      5          6           0        0.203040    2.318540    0.062719
      6          6           0       -0.757961    1.241995   -0.079486
      7          1           0       -0.888783   -0.813428   -0.333259
      8          8           0        1.493654   -1.526624   -0.212117
      9          1           0        2.937877    0.460731    0.032007
     10          1           0        2.289814    2.727806    0.199297
     11          8           0       -1.975809    1.412395   -0.108376
     12          6           0       -0.298919    3.723573    0.170889
     13          1           0       -0.877522    4.000626   -0.712721
     14          1           0       -0.955054    3.837803    1.036180
     15          1           0        0.531928    4.421320    0.272664
     16          8           0       -2.156963   -2.189392   -0.545540
     17          1           0        0.535019   -3.051632    0.413739
     18          8           0        4.219759   -1.004201    0.052340
     19          1           0       -3.350109    0.329651    0.141206
     20          1           0       -2.956623   -1.696600   -0.248786
     21          1           0       -2.337461   -2.493339   -1.441344
     22          8           0       -0.116053   -3.712336    0.699184
     23          1           0       -0.953794   -3.345363    0.374927
     24          1           0        3.437732   -1.554816   -0.124989
     25          1           0        4.871171   -1.226959   -0.619765
     26          8           0       -4.008523   -0.394844    0.189792
     27          1           0       -4.416871   -0.344382    1.059404
 ---------------------------------------------------------------------

 SCF Done:  E(RCAM-B3LYP) =  -759.890860891     A.U. after   14 cycles

 Excitation energies and oscillator strengths:

 Excited State   1:      Singlet-A      5.0347 eV  246.26 nm  f=0.3780  <S**2>=0.000
      53 -> 54         0.69708
 This state for optimization and/or second-order correction.
 Total Energy, E(TD-HF/TD-DFT) =  -759.705838881
 Copying the excited state density for this state as the 1-particle RhoCI density.

 Excited State   2:      Singlet-A      5.5334 eV  224.06 nm  f=0.0001  <S**2>=0.000
      49 -> 54        -0.16849
      52 -> 54         0.63591
      52 -> 56         0.18810

 Excited State   3:      Singlet-A      6.2726 eV  197.66 nm  f=0.4069  <S**2>=0.000
      53 -> 56         0.69206

 Excited State   4:      Singlet-A      6.4811 eV  191.30 nm  f=0.0043  <S**2>=0.000
      53 -> 55         0.64782
      53 -> 57         0.10002
      53 -> 58        -0.12116
      53 -> 62        -0.19555

 Excited State   5:      Singlet-A      6.7639 eV  183.30 nm  f=0.2203  <S**2>=0.000
      50 -> 54         0.50670
      51 -> 54        -0.45107

 Excited State   6:      Singlet-A      6.7900 eV  182.60 nm  f=0.0013  <S**2>=0.000
      47 -> 56         0.14550
      49 -> 54        -0.20994
      49 -> 56         0.43850
      52 -> 54        -0.13914
      52 -> 56         0.40577

 Excited State   7:      Singlet-A      7.1339 eV  173.80 nm  f=0.0028  <S**2>=0.000
      53 -> 57         0.62464
      53 -> 58         0.14178
      53 -> 60        -0.20251
      53 -> 62         0.10852

 Excited State   8:      Singlet-A      7.2536 eV  170.93 nm  f=0.0014  <S**2>=0.000
      53 -> 55         0.10836
      53 -> 57        -0.10207
      53 -> 58         0.64097
      53 -> 60         0.14039

 Excited State   9:      Singlet-A      7.3988 eV  167.57 nm  f=0.0010  <S**2>=0.000
      47 -> 54         0.11378
      49 -> 54         0.61117
      49 -> 56         0.13383
      52 -> 54         0.12423
      52 -> 56         0.20383

 Excited State  10:      Singlet-A      7.5158 eV  164.96 nm  f=0.1760  <S**2>=0.000
      50 -> 56        -0.29460
      51 -> 56         0.26971
      53 -> 59         0.53685

 The electronic state is 1-A.
 Alpha  occ. eigenvalues --  -19.21016 -19.20613 -19.20544 -19.19873 -19.19593
 Alpha  occ. eigenvalues --  -19.17490 -14.45664 -14.45096 -10.41842 -10.38600
 Alpha  occ. eigenvalues --  -10.32422 -10.27438 -10.24779  -1.18544  -1.15296
 Alpha  occ. eigenvalues --   -1.11202  -1.10210  -1.09565  -1.07898  -1.07002
 Alpha  occ. eigenvalues --   -1.02532  -0.91064  -0.80273  -0.76920  -0.75276
 Alpha  occ. eigenvalues --   -0.65771  -0.65397  -0.62831  -0.61930  -0.61378
 Alpha  occ. eigenvalues --   -0.60076  -0.58872  -0.57565  -0.55876  -0.53779
 Alpha  occ. eigenvalues --   -0.51778  -0.51004  -0.50075  -0.48221  -0.47884
 Alpha  occ. eigenvalues --   -0.47196  -0.46385  -0.45833  -0.44019  -0.43403
 Alpha  occ. eigenvalues --   -0.41109  -0.40342  -0.39903  -0.38465  -0.37390
 Alpha  occ. eigenvalues --   -0.37136  -0.36308  -0.31008
 Alpha virt. eigenvalues --   -0.00976   0.02635   0.03431   0.03887   0.04305
 Alpha virt. eigenvalues --    0.06050   0.06465   0.07121   0.07329   0.08949
 Alpha virt. eigenvalues --    0.09487   0.09852   0.10411   0.11410   0.12796

 Mulliken charges:
               1
     1  N   -0.507981
     2  C    0.481290
     3  N   -0.406504
     4  C   -0.305382
     5  C    0.714028
     6  C    0.001710
     7  H    0.439260
     8  O   -0.508716
     9  H    0.428947
    10  H    0.184959
    11  O   -0.436596
    12  C   -0.575396
    13  H    0.167501
    14  H    0.168580
    15  H    0.156694
    16  O   -0.709786
    17  H    0.326295
    18  O   -0.593985
    19  H    0.357321
    20  H    0.395293
    21  H    0.305880
    22  O   -0.679911
    23  H    0.349875
    24  H    0.296660
    25  H    0.305179
    26  O   -0.663903
    27  H    0.308686
 Sum of Mulliken charges =  -0.00000

 Dipole moment (field-independent basis, Debye):
    X=              2.5129    Y=              7.5757    Z=             -2.3615  Tot=              8.3236
 Quadrupole moment (field-independent basis, Debye-Ang):
   XX=            -69.9571   YY=            -95.7872   ZZ=            -77.4642
   XY=             10.9442   XZ=            -11.5466   YZ=             12.4380

  Exact polarizability: 202.126 -20.902 205.673   0.413   7.176 107.479
 Approx polarizability: 154.522 -12.125 133.280   0.007   3.648  89.933

 ******    4 imaginary frequencies (negative Signs) ******

                      1                      2                      3
                      A                      A                      A
 Frequencies --   -325.4547              -190.6775              -155.6320
 Red. masses --      6.3071                 1.4901                 2.0644
 Frc consts  --      0.3936                 0.0319                 0.0295
 IR Inten    --     26.9111                 0.8695                26.1923

                      4                      5                      6
                      A                      A                      A
 Frequencies --   -132.4883                24.7968                50.3284
 Red. masses --      6.1384                 6.1411                 6.0902
 Frc consts  --      0.0635                 0.0022                 0.0091
 IR Inten    --      4.9957                 6.2800                 5.1293

                      7                      8                      9
                      A                      A                      A
 Frequencies --     58.5942                65.0561                83.1793
 Red. masses --      6.9433                 6.6579                 3.7530
 Frc consts  --      0.0140                 0.0166                 0.0153
 IR Inten    --      3.8119                 2.0831                 0.4980

                     10                     11                     12
                      A                      A                      A
 Frequencies --     91.7494               142.2255               145.3460
 Red. masses --      5.5934                 6.4981                 6.7691
 Frc consts  --      0.0277                 0.0774                 0.0843
 IR Inten    --     46.2870                17.7889                 1.7161

                     13                     14                     15
                      A                      A                      A
 Frequencies --    162.8865               174.3022               183.0501
 Red. masses --      4.7886                 6.9000                 5.8385
 Frc consts  --      0.0749                 0.1235                 0.1153
 IR Inten    --     13.6950                 4.4096                14.7383

                     16                     17                     18
                      A                      A                      A
 Frequencies --    197.6144               229.2789               256.4250
 Red. masses --      5.4387                 1.1017                 1.1100
 Frc consts  --      0.1251                 0.0341                 0.0430
 IR Inten    --      1.4913               190.9680               196.2246

                     19                     20                     21
                      A                      A                      A
 Frequencies --    280.9695               300.6180               311.6841
 Red. masses --      4.9215                 3.2969                 1.1098
 Frc consts  --      0.2289                 0.1755                 0.0635
 IR Inten    --     18.3292                26.1980               161.7114

                     22                     23                     24
                      A                      A                      A
 Frequencies --    329.1175               371.1673               391.7153
 Red. masses --      1.1903                 1.7688                 1.1699
 Frc consts  --      0.0760                 0.1436                 0.1058
 IR Inten    --    139.1178                97.9623                40.1678

                     25                     26                     27
                      A                      A                      A
 Frequencies --    396.6261               424.6429               454.6028
 Red. masses --      3.0683                 1.1631                 2.1011
 Frc consts  --      0.2844                 0.1236                 0.2558
 IR Inten    --     44.7429                70.2907                29.7698

                     28                     29                     30
                      A                      A                      A
 Frequencies --    465.2178               515.4785               528.5465
 Red. masses --      1.5845                 1.6113                 2.1493
 Frc consts  --      0.2020                 0.2523                 0.3538
 IR Inten    --    210.9263                38.3236                36.5812

                     31                     32                     33
                      A                      A                      A
 Frequencies --    551.0666               607.2325               608.6113
 Red. masses --      2.2459                 1.1110                 3.6590
 Frc consts  --      0.4018                 0.2414                 0.7985
 IR Inten    --     10.1673               466.4588                32.3348

                     34                     35                     36
                      A                      A                      A
 Frequencies --    619.0107               680.5362               692.6024
 Red. masses --      1.1512                 1.0990                 2.0639
 Frc consts  --      0.2599                 0.2999                 0.5833
 IR Inten    --    304.3621               222.2132               145.1167

                     37                     38                     39
                      A                      A                      A
 Frequencies --    723.6514               761.0131               799.1761
 Red. masses --      1.4488                 5.0463                 4.2154
 Frc consts  --      0.4470                 1.7219                 1.5863
 IR Inten    --    108.3285                55.7601                60.6494

                     40                     41                     42
                      A                      A                      A
 Frequencies --    803.6828               900.8408               967.7003
 Red. masses --      1.3454                 1.0692                 1.8255
 Frc consts  --      0.5120                 0.5112                 1.0072
 IR Inten    --    248.3003               261.8991                 7.7304

                     43                     44                     45
                      A                      A                      A
 Frequencies --    969.3108              1042.6421              1178.8178
 Red. masses --      1.4996                 2.8387                 2.3055
 Frc consts  --      0.8301                 1.8182                 1.8876
 IR Inten    --     12.7731                 8.8899                86.7334

                     46                     47                     48
                      A                      A                      A
 Frequencies --   1204.0576              1305.9474              1365.9750
 Red. masses --      4.2696                 2.5867                 1.1984
 Frc consts  --      3.6470                 2.5993                 1.3174
 IR Inten    --     12.1653                 7.8348               154.6103

                     49                     50                     51
                      A                      A                      A
 Frequencies --   1411.0174              1434.5696              1443.0257
 Red. masses --      2.2376                 1.0516                 1.5472
 Frc consts  --      2.6248                 1.2751                 1.8982
 IR Inten    --    131.1605                20.8726               192.2774

                     52                     53                     54
                      A                      A                      A
 Frequencies --   1470.7762              1519.6579              1539.7227
 Red. masses --      1.3891                 1.8189                 3.0817
 Frc consts  --      1.7704                 2.4748                 4.3045
 IR Inten    --     83.0955                49.3292                49.8497

                     55                     56                     57
                      A                      A                      A
 Frequencies --   1597.1931              1602.2614              1631.4552
 Red. masses --      1.1023                 1.0918                 1.1391
 Frc consts  --      1.6568                 1.6514                 1.7863
 IR Inten    --    386.5341                67.6420               219.9874

                     58                     59                     60
                      A                      A                      A
 Frequencies --   1653.7475              1672.7068              1727.9624
 Red. masses --      3.1000                 1.2404                 3.0387
 Frc consts  --      4.9951                 2.0447                 5.3458
 IR Inten    --    779.0877               300.6777               547.4346

                     61                     62                     63
                      A                      A                      A
 Frequencies --   1774.9387              3053.6486              3108.2027
 Red. masses --      7.0489                 1.0353                 1.0982
 Frc consts  --     13.0840                 5.6877                 6.2511
 IR Inten    --    137.9299                12.0534                 4.2933

                     64                     65                     66
                      A                      A                      A
 Frequencies --   3145.8180              3228.9518              3300.2489
 Red. masses --      1.1023                 1.0945                 1.0827
 Frc consts  --      6.4271                 6.7232                 6.9477
 IR Inten    --     30.2602                 3.5988               873.6734

                     67                     68                     69
                      A                      A                      A
 Frequencies --   3407.0786              3427.5503              3501.7327
 Red. masses --      1.0658                 1.0842                 1.0638
 Frc consts  --      7.2896                 7.5046                 7.6858
 IR Inten    --    989.0993               793.8107              1800.7374

                     70                     71                     72
                      A                      A                      A
 Frequencies --   3674.8508              3698.2448              3739.5001
 Red. masses --      1.0578                 1.0471                 1.0817
 Frc consts  --      8.4169                 8.4379                 8.9119
 IR Inten    --    476.3067               576.1684               485.9880

                     73                     74                     75
                      A                      A                      A
 Frequencies --   3878.9709              3891.9458              3897.7086
 Red. masses --      1.0668                 1.0679                 1.0713
 Frc consts  --      9.4576                 9.5303                 9.5894
 IR Inten    --    136.7170               142.5183               170.6644

 - Thermochemistry -
 -------------------
 Temperature   298.150 Kelvin.  Pressure   1.00000 Atm.
 Atom     1 has atomic number  7 and mass  14.00307

 Molecular mass:   198.08519 amu.
 Principal axes and moments of inertia in atomic units:
                           1         2         3
     Eigenvalues --  2871.809173352.579786072.96554
           X            0.99931   0.03682  -0.00439
           Y           -0.03679   0.99930   0.00686
           Z            0.00464  -0.00669   0.99997
 This molecule is an asymmetric top.
 Rotational symmetry number  1.
 Warning -- assumption of classical behavior for rotation
           may cause significant error
 Rotational temperatures (Kelvin)      0.03016     0.02584     0.01426
 Rotational constants (GHZ):           0.62843     0.53831     0.29718
    4 imaginary frequencies ignored.
 Zero-point vibrational energy     549388.5 (Joules/Mol)
                                  131.30700 (Kcal/Mol)
 Warning -- explicit consideration of  30 degrees of freedom as
           vibrations may cause significant error
 Vibrational temperatures:     35.68    72.41    84.30    93.60   119.68
          (Kelvin)            132.01   204.63   209.12   234.36   250.78
                              263.37   284.32   329.88   368.94   404.25
                              432.52   448.44   473.53   534.03   563.59
                              570.66   610.97   654.07   669.34   741.66
                              760.46   792.86   873.67   875.66   890.62
                              979.14   996.50  1041.17  1094.93  1149.84
                             1156.32  1296.11  1392.30  1394.62  1500.13
                             1696.06  1732.37  1878.97  1965.33  2030.14
                             2064.03  2076.19  2116.12  2186.45  2215.32
                             2298.00  2305.30  2347.30  2379.37  2406.65
                             2486.15  2553.74  4393.52  4472.01  4526.13
                             4645.74  4748.32  4902.03  4931.48  5038.21
                             5287.29  5320.95  5380.31  5580.97  5599.64
                             5607.93

 Zero-point correction=                           0.209251 (Hartree/Particle)
 Thermal correction to Energy=                    0.226971
 Thermal correction to Enthalpy=                  0.227915
 Thermal correction to Gibbs Free Energy=         0.163204
 Sum of electronic and zero-point Energies=           -759.496588
 Sum of electronic and thermal Energies=              -759.478868
 Sum of electronic and thermal Enthalpies=            -759.477924
 Sum of electronic and thermal Free Energies=         -759.542635

                     E (Thermal)             CV                S
                      KCal/Mol        Cal/Mol-Kelvin    Cal/Mol-Kelvin
 Total                  142.426             62.077            136.196
 Electronic               0.000              0.000              0.000
 Translational            0.889              2.981             41.755
 Rotational               0.889              2.981             32.436
 Vibrational            140.649             56.116             62.004
 Vibration     1          0.593              1.985              6.207
 Vibration     2          0.595              1.977              4.804
 Vibration     3          0.596              1.974              4.504
 Vibration     4          0.597              1.971              4.298
 Vibration     5          0.600              1.961              3.814
 Vibration     6          0.602              1.955              3.622
 Vibration     7          0.616              1.911              2.774
 Vibration     8          0.617              1.908              2.732
 Vibration     9          0.623              1.888              2.516
 Vibration    10          0.627              1.874              2.389
 Vibration    11          0.631              1.863              2.297
 Vibration    12          0.637              1.843              2.155
 Vibration    13          0.652              1.796              1.885
 Vibration    14          0.666              1.752              1.686
 Vibration    15          0.681              1.709              1.528
 Vibration    16          0.693              1.673              1.413
 Vibration    17          0.700              1.651              1.353
 Vibration    18          0.712              1.617              1.264
 Vibration    19          0.743              1.531              1.075
 Vibration    20          0.759              1.488              0.994
 Vibration    21          0.763              1.477              0.975
 Vibration    22          0.787              1.417              0.876
 Vibration    23          0.813              1.351              0.782
 Vibration    24          0.823              1.327              0.751
 Vibration    25          0.871              1.216              0.621
 Vibration    26          0.884              1.187              0.590
 Vibration    27          0.906              1.137              0.542
 Vibration    28          0.966              1.016              0.437
 Vibration    29          0.967              1.014              0.435
 Vibration    30          0.979              0.992              0.418

 Normal termination of Gaussian 16 at Thu Jan  5 15:09:21 2023.
