 Gaussian 16, Revision B.01,
 Gaussian 16:  ES64L-G16RevB.01 20-Dec-2017

 ---------------------------------------------------------
 #p freq td=(nstates=10) cam-b3lyp/6-311+G(d,p) symm=loose
 ---------------------------------------------------------

 -------------
 Adenine TDDFT
 -------------
 Symbolic Z-matrix:
 Charge =  0 Multiplicity = 1

                         Standard orientation:
 ---------------------------------------------------------------------
 Center     Atomic      Atomic             Coordinates (Angstroms)
 Number     Number       Type             X           Y           Z
 ---------------------------------------------------------------------
      1          6           0        0.664555   -2.021821    0.000000
      2          7           0        1.659008   -1.127792    0.000000
      3          6           0        1.353886    0.171290    0.000000
      4          6           0        0.000000    0.543282    0.000000
      5          6           0       -0.918721   -0.495494    0.000000
      6          7           0       -0.641588   -1.798863    0.000000
      7          1           0        0.973540   -3.061995    0.000000
      8          7           0        2.348282    1.080832    0.000000
      9          1           0        3.301658    0.761362    0.000000
     10          1           0        2.137417    2.063682    0.000000
     11          7           0       -0.633203    1.770424    0.000000
     12          7           0       -2.142670    0.123487    0.000000
     13          6           0       -1.899333    1.476588    0.000000
     14          1           0       -3.038351   -0.337796    0.000000
     15          1           0       -2.705393    2.195054    0.000000
 ---------------------------------------------------------------------

 SCF Done:  E(RCAM-B3LYP) =  -467.232522580     A.U. after   14 cycles

 Excitation energies and oscillator strengths:

 Excited State   1:      Singlet-A"     5.3687 eV  230.94 nm  f=0.0006  <S**2>=0.000
      34 -> 36         0.66554
      34 -> 42        -0.11829
      34 -> 44        -0.13206
 This state for optimization and/or second-order correction.
 Total Energy, E(TD-HF/TD-DFT) =  -467.035224813
 Copying the excited state density for this state as the 1-particle RhoCI density.

 Excited State   2:      Singlet-A'     5.3871 eV  230.15 nm  f=0.2856  <S**2>=0.000
      33 -> 39         0.13532
      35 -> 36         0.68700

 Excited State   3:      Singlet-A'     5.5238 eV  224.46 nm  f=0.0150  <S**2>=0.000
      33 -> 36        -0.35900
      35 -> 39         0.59308

 Excited State   4:      Singlet-A"     5.8653 eV  211.39 nm  f=0.0085  <S**2>=0.000
      35 -> 37         0.52807
      35 -> 38        -0.41595
      35 -> 43        -0.11821

 Excited State   5:      Singlet-A"     5.9539 eV  208.24 nm  f=0.0033  <S**2>=0.000
      34 -> 39         0.67652

 Excited State   6:      Singlet-A"     6.2131 eV  199.55 nm  f=0.0014  <S**2>=0.000
      31 -> 37        -0.10349
      35 -> 37         0.40562
      35 -> 38         0.52965

 Excited State   7:      Singlet-A"     6.3051 eV  196.64 nm  f=0.0010  <S**2>=0.000
      30 -> 44        -0.11338
      32 -> 36         0.64569
      34 -> 42         0.11527
      34 -> 44         0.13938

 Excited State   8:      Singlet-A'     6.6153 eV  187.42 nm  f=0.4436  <S**2>=0.000
      33 -> 36         0.52609
      33 -> 39        -0.11304
      34 -> 38         0.10992
      35 -> 39         0.31004
      35 -> 42         0.22219
      35 -> 44         0.13153

 Excited State   9:      Singlet-A"     6.7537 eV  183.58 nm  f=0.0028  <S**2>=0.000
      35 -> 37        -0.12689
      35 -> 40         0.56289
      35 -> 41        -0.17473
      35 -> 43        -0.26242
      35 -> 45         0.17480

 Excited State  10:      Singlet-A'     6.8001 eV  182.33 nm  f=0.0179  <S**2>=0.000
      33 -> 36        -0.21324
      33 -> 42         0.10812
      35 -> 39        -0.17856
      35 -> 42         0.57298
      35 -> 44         0.20805

 The electronic state is 1-A'.
 Alpha  occ. eigenvalues --  -14.45724 -14.41254 -14.39240 -14.38370 -14.37746
 Alpha  occ. eigenvalues --  -10.34222 -10.32934 -10.32400 -10.31197 -10.27567
 Alpha  occ. eigenvalues --   -1.13479  -1.07520  -1.02968  -0.98011  -0.94856
 Alpha  occ. eigenvalues --   -0.85703  -0.75313  -0.73708  -0.71275  -0.66597
 Alpha  occ. eigenvalues --   -0.63250  -0.59427  -0.57956  -0.55306  -0.53746
 Alpha  occ. eigenvalues --   -0.51978  -0.49781  -0.48475  -0.43551  -0.39373
 Alpha  occ. eigenvalues --   -0.36740  -0.35879  -0.33393  -0.32415  -0.28486
 Alpha virt. eigenvalues --    0.01085   0.02037   0.03293   0.04101   0.04778
 Alpha virt. eigenvalues --    0.06060   0.06169   0.06446   0.08139   0.08480
 Alpha virt. eigenvalues --    0.09708   0.09893   0.10455   0.11658   0.11923

 Mulliken charges:
               1
     1  C    0.044737
     2  N   -0.206922
     3  C   -0.210864
     4  C    0.337067
     5  C   -0.124574
     6  N   -0.169480
     7  H    0.139793
     8  N   -0.439174
     9  H    0.289684
    10  H    0.276156
    11  N   -0.244537
    12  N   -0.289425
    13  C    0.146316
    14  H    0.312798
    15  H    0.138425
 Sum of Mulliken charges =  -0.00000

 Dipole moment (field-independent basis, Debye):
    X=             -1.6902    Y=              1.8309    Z=              0.0000  Tot=              2.4918
 Quadrupole moment (field-independent basis, Debye-Ang):
   XX=            -41.6451   YY=            -60.8693   ZZ=            -60.0010
   XY=              1.3857   XZ=              0.0000   YZ=              0.0000

  Exact polarizability: 165.333 -16.823 148.275   0.000  -0.000  64.252
 Approx polarizability: 143.807   1.267 129.801  -0.000  -0.000  63.987

 ******    4 imaginary frequencies (negative Signs) ******

                      1                      2                      3
                     A"                     A'                     A"
 Frequencies --  -2114.4249              -505.4414              -413.6238
 Red. masses --      5.9375                 9.5271                 1.7870
 Frc consts  --     15.6401                 1.4340                 0.1801
 IR Inten    --   1592.8142               710.7599               101.2160

                      4                      5                      6
                     A"                     A"                     A'
 Frequencies --   -352.0151               104.4802               255.4169
 Red. masses --      3.7609                 4.9309                 3.7591
 Frc consts  --      0.2746                 0.0317                 0.1445
 IR Inten    --    116.5329                29.5740                59.9594

                      7                      8                      9
                     A"                     A"                     A"
 Frequencies --    270.0786               359.3994               394.8802
 Red. masses --      5.1043                 9.0559                 1.0814
 Frc consts  --      0.2194                 0.6892                 0.0994
 IR Inten    --      1.6656                 1.4227                 0.3695

                     10                     11                     12
                     A'                     A"                     A'
 Frequencies --    464.2018               466.2540               507.7986
 Red. masses --      8.5016                 2.5970                 5.6934
 Frc consts  --      1.0794                 0.3326                 0.8650
 IR Inten    --    272.3881                61.7272               281.0801

                     13                     14                     15
                     A"                     A'                     A"
 Frequencies --    541.8302               568.7823               675.3058
 Red. masses --      1.3841                 6.4110                 7.4371
 Frc consts  --      0.2394                 1.2220                 1.9983
 IR Inten    --     29.3254                71.6322                 0.7981

                     16                     17                     18
                     A"                     A'                     A"
 Frequencies --    698.7944               714.0237               714.0300
 Red. masses --      1.2779                 6.1703                 1.1910
 Frc consts  --      0.3677                 1.8535                 0.3578
 IR Inten    --     35.8292                59.1891                39.7702

                     19                     20                     21
                     A'                     A'                     A'
 Frequencies --    844.4498               935.0978              1009.7986
 Red. masses --      8.0138                 7.4417                 1.9868
 Frc consts  --      3.3669                 3.8338                 1.1936
 IR Inten    --     51.8945               117.5980                85.6026

                     22                     23                     24
                     A'                     A'                     A'
 Frequencies --   1081.9031              1142.5012              1201.7078
 Red. masses --      2.4255                 3.8354                 2.9207
 Frc consts  --      1.6728                 2.9497                 2.4850
 IR Inten    --     44.7502                59.4237                93.1103

                     25                     26                     27
                     A'                     A'                     A'
 Frequencies --   1265.0281              1292.6257              1365.2390
 Red. masses --      2.7753                 1.7632                 4.4535
 Frc consts  --      2.6167                 1.7358                 4.8907
 IR Inten    --     12.0475                12.0464                32.2966

                     28                     29                     30
                     A'                     A'                     A'
 Frequencies --   1437.9709              1464.4464              1491.5803
 Red. masses --      4.0788                 1.6481                 2.7950
 Frc consts  --      4.9691                 2.0824                 3.6637
 IR Inten    --     30.9459                19.5958                 6.7594

                     31                     32                     33
                     A'                     A'                     A'
 Frequencies --   1553.0949              1569.6808              1609.9656
 Red. masses --      4.3634                 3.3129                 4.5183
 Frc consts  --      6.2011                 4.8093                 6.9001
 IR Inten    --    104.7228               171.7675               209.1165

                     34                     35                     36
                     A'                     A'                     A'
 Frequencies --   1655.5031              3176.6184              3251.3377
 Red. masses --      1.7106                 1.0839                 1.0940
 Frc consts  --      2.7622                 6.4445                 6.8138
 IR Inten    --    497.6730                 3.1533                 1.9829

                     37                     38                     39
                     A'                     A'                     A'
 Frequencies --   3633.0679              3677.6175              3764.3723
 Red. masses --      1.0444                 1.0812                 1.1070
 Frc consts  --      8.1218                 8.6154                 9.2420
 IR Inten    --    131.7761               120.4393                55.4986

 - Thermochemistry -
 -------------------
 Temperature   298.150 Kelvin.  Pressure   1.00000 Atm.
 Atom     1 has atomic number  6 and mass  12.00000

 Molecular mass:   135.05450 amu.
 Principal axes and moments of inertia in atomic units:
                           1         2         3
     Eigenvalues --   753.081331140.598571893.67989
           X            0.93309   0.35965   0.00000
           Y           -0.35965   0.93309   0.00000
           Z           -0.00000   0.00000   1.00000
 This molecule is an asymmetric top.
 Rotational symmetry number  1.
 Warning -- assumption of classical behavior for rotation
           may cause significant error
 Rotational temperatures (Kelvin)      0.11501     0.07594     0.04574
 Rotational constants (GHZ):           2.39648     1.58228     0.95303
    4 imaginary frequencies ignored.
 Zero-point vibrational energy     270110.1 (Joules/Mol)
                                   64.55786 (Kcal/Mol)
 Warning -- explicit consideration of  10 degrees of freedom as
           vibrations may cause significant error
 Vibrational temperatures:    150.32   367.49   388.58   517.10   568.14
          (Kelvin)            667.88   670.84   730.61   779.57   818.35
                              971.61  1005.41  1027.32  1027.33  1214.97
                             1345.40  1452.87  1556.62  1643.80  1728.99
                             1820.09  1859.80  1964.27  2068.92  2107.01
                             2146.05  2234.56  2258.42  2316.38  2381.90
                             4570.45  4677.95  5227.17  5291.27  5416.09

 Zero-point correction=                           0.102880 (Hartree/Particle)
 Thermal correction to Energy=                    0.109863
 Thermal correction to Enthalpy=                  0.110807
 Thermal correction to Gibbs Free Energy=         0.071187
 Sum of electronic and zero-point Energies=           -466.932345
 Sum of electronic and thermal Energies=              -466.925362
 Sum of electronic and thermal Enthalpies=            -466.924418
 Sum of electronic and thermal Free Energies=         -466.964038

                     E (Thermal)             CV                S
                      KCal/Mol        Cal/Mol-Kelvin    Cal/Mol-Kelvin
 Total                   68.940             26.936             83.387
 Electronic               0.000              0.000              0.000
 Translational            0.889              2.981             40.614
 Rotational               0.889              2.981             28.877
 Vibrational             67.162             20.974             13.896
 Vibration     1          0.605              1.946              3.369
 Vibration     2          0.666              1.754              1.693
 Vibration     3          0.674              1.728              1.596
 Vibration     4          0.734              1.556              1.125
 Vibration     5          0.762              1.481              0.982
 Vibration     6          0.822              1.329              0.754
 Vibration     7          0.824              1.325              0.748
 Vibration     8          0.863              1.233              0.639
 Vibration     9          0.897              1.158              0.561
 Vibration    10          0.925              1.099              0.507

 Normal termination of Gaussian 16 at Tue Nov 22 13:43:58 2022.
