 Gaussian 16, Revision B.01,
 Gaussian 16:  ES64L-G16RevB.01 20-Dec-2017

 ---------------------------------------------------------
 #p freq td=(nstates=10) cam-b3lyp/6-311+G(d,p) symm=loose
 ---------------------------------------------------------

 --------------
 Cytosine TDDFT
 --------------
 Symbolic Z-matrix:
 Charge =  0 Multiplicity = 1

                         Standard orientation:
 ---------------------------------------------------------------------
 Center     Atomic      Atomic             Coordinates (Angstroms)
 Number     Number       Type             X           Y           Z
 ---------------------------------------------------------------------
      1          6           0       -0.066548   -1.714527   -0.000000
      2          6           0       -1.219007    0.431513   -0.000000
      3          6           0        1.101517    0.340693    0.000000
      4          6           0        1.131900   -1.097127    0.000000
      5          7           0       -1.203699   -0.985159   -0.000000
      6          7           0       -0.000000    1.047554    0.000000
      7          7           0        2.271670    1.018994    0.000000
      8          8           0       -2.290717    0.994921   -0.000000
      9          1           0       -2.112424   -1.423553   -0.000000
     10          1           0        2.056960   -1.653675    0.000000
     11          1           0       -0.176634   -2.791533   -0.000000
     12          1           0        3.159550    0.551294    0.000000
     13          1           0        2.235310    2.025069    0.000000
 ---------------------------------------------------------------------

 SCF Done:  E(RCAM-B3LYP) =  -394.873838903     A.U. after   14 cycles

 Excitation energies and oscillator strengths:

 Excited State   1:      Singlet-A'     5.0136 eV  247.30 nm  f=0.0671  <S**2>=0.000
      29 -> 30         0.69050
 This state for optimization and/or second-order correction.
 Total Energy, E(TD-HF/TD-DFT) =  -394.689593623
 Copying the excited state density for this state as the 1-particle RhoCI density.

 Excited State   2:      Singlet-A"     5.2861 eV  234.55 nm  f=0.0021  <S**2>=0.000
      26 -> 30         0.50661
      26 -> 34         0.11487
      27 -> 30        -0.45413
      27 -> 34        -0.10823

 Excited State   3:      Singlet-A"     5.8089 eV  213.44 nm  f=0.0038  <S**2>=0.000
      28 -> 31        -0.16526
      29 -> 31         0.64632
      29 -> 32        -0.14937

 Excited State   4:      Singlet-A"     5.9122 eV  209.71 nm  f=0.0004  <S**2>=0.000
      26 -> 30         0.36317
      26 -> 34         0.17939
      27 -> 30         0.35048
      27 -> 34         0.40119
      27 -> 41        -0.12690

 Excited State   5:      Singlet-A'     5.9387 eV  208.77 nm  f=0.1340  <S**2>=0.000
      28 -> 30         0.67460
      29 -> 34        -0.15740

 Excited State   6:      Singlet-A"     6.1334 eV  202.15 nm  f=0.0000  <S**2>=0.000
      26 -> 30        -0.24289
      27 -> 30        -0.40331
      27 -> 34         0.47874
      27 -> 41        -0.15241

 Excited State   7:      Singlet-A"     6.3434 eV  195.45 nm  f=0.0042  <S**2>=0.000
      28 -> 31         0.46409
      28 -> 32         0.44806
      29 -> 32        -0.15142
      29 -> 33         0.17353

 Excited State   8:      Singlet-A"     6.4900 eV  191.04 nm  f=0.0091  <S**2>=0.000
      28 -> 31         0.14663
      28 -> 33         0.11380
      29 -> 31         0.18181
      29 -> 32         0.62013
      29 -> 33        -0.12893
      29 -> 37        -0.10427

 Excited State   9:      Singlet-A'     6.6279 eV  187.06 nm  f=0.3906  <S**2>=0.000
      28 -> 30         0.15163
      28 -> 34        -0.18649
      29 -> 34         0.63144

 Excited State  10:      Singlet-A"     6.7536 eV  183.58 nm  f=0.0004  <S**2>=0.000
      26 -> 30        -0.19051
      26 -> 34         0.61738
      26 -> 41        -0.14981
      27 -> 34        -0.11615
      29 -> 33        -0.13428

 The electronic state is 1-A'.
 Alpha  occ. eigenvalues --  -19.14767 -14.44577 -14.42100 -14.36827 -10.36854
 Alpha  occ. eigenvalues --  -10.35326 -10.32919 -10.26531  -1.13762  -1.06870
 Alpha  occ. eigenvalues --   -1.04118  -0.96568  -0.87844  -0.75478  -0.73983
 Alpha  occ. eigenvalues --   -0.65173  -0.65038  -0.61099  -0.57838  -0.53912
 Alpha  occ. eigenvalues --   -0.52563  -0.51251  -0.48342  -0.46145  -0.42525
 Alpha  occ. eigenvalues --   -0.34384  -0.32794  -0.32490  -0.29914
 Alpha virt. eigenvalues --   -0.00047   0.01107   0.02383   0.04271   0.04809
 Alpha virt. eigenvalues --    0.06760   0.07056   0.07347   0.09230   0.10501
 Alpha virt. eigenvalues --    0.10984   0.11570   0.11646   0.14492   0.14987

 Mulliken charges:
               1
     1  C   -0.146112
     2  C    0.251743
     3  C    0.030804
     4  C    0.129629
     5  N   -0.325927
     6  N   -0.306967
     7  N   -0.382266
     8  O   -0.380328
     9  H    0.312937
    10  H    0.130211
    11  H    0.149499
    12  H    0.252952
    13  H    0.283824
 Sum of Mulliken charges =  -0.00000

 Dipole moment (field-independent basis, Debye):
    X=              4.9158    Y=             -4.8558    Z=              0.0000  Tot=              6.9097
 Quadrupole moment (field-independent basis, Debye-Ang):
   XX=            -42.7189   YY=            -42.5570   ZZ=            -48.9876
   XY=             10.8310   XZ=             -0.0000   YZ=             -0.0000

  Exact polarizability: 107.136  -6.562 111.958  -0.000   0.000  49.763
 Approx polarizability: 119.144  -1.239  86.646   0.000  -0.000  50.485

 ******    4 imaginary frequencies (negative Signs) ******

                      1                      2                      3
                     A"                     A"                     A"
 Frequencies --   -598.7686              -391.8793              -350.2114
 Red. masses --      1.6158                 1.6967                 3.1753
 Frc consts  --      0.3413                 0.1535                 0.2295
 IR Inten    --    114.2752               184.0580                10.6093

                      4                      5                      6
                     A"                     A"                     A'
 Frequencies --    -68.6505               179.0419               302.4269
 Red. masses --      4.1811                 5.0501                 4.1612
 Frc consts  --      0.0116                 0.0954                 0.2242
 IR Inten    --      1.9271                 2.2258                28.9056

                      7                      8                      9
                     A"                     A"                     A'
 Frequencies --    392.0588               435.7641               477.5132
 Red. masses --      1.0379                 1.1483                 5.1060
 Frc consts  --      0.0940                 0.1285                 0.6860
 IR Inten    --     44.9923                 1.1286                 0.0753

                     10                     11                     12
                     A"                     A'                     A'
 Frequencies --    487.3181               517.6841               580.9300
 Red. masses --      1.5483                 5.2807                 8.7077
 Frc consts  --      0.2166                 0.8338                 1.7314
 IR Inten    --     86.8871                 2.8791                 4.4863

                     13                     14                     15
                     A"                     A'                     A"
 Frequencies --    693.3074               697.0034               759.3675
 Red. masses --      9.9926                 6.7990                 1.8014
 Frc consts  --      2.8300                 1.9461                 0.6120
 IR Inten    --     11.7941                92.7745                16.0877

                     16                     17                     18
                     A'                     A'                     A'
 Frequencies --    916.4373               979.5037              1018.5262
 Red. masses --      3.5928                 3.7874                 3.5091
 Frc consts  --      1.7778                 2.1410                 2.1448
 IR Inten    --      7.0790                18.6841               103.8539

                     19                     20                     21
                     A'                     A'                     A'
 Frequencies --   1104.6613              1179.8132              1222.1442
 Red. masses --      1.7638                 2.5475                 1.2787
 Frc consts  --      1.2681                 2.0893                 1.1253
 IR Inten    --     62.1343                16.3863                27.6115

                     22                     23                     24
                     A'                     A'                     A'
 Frequencies --   1348.3087              1465.7540              1497.4458
 Red. masses --      2.1860                 2.1206                 2.2504
 Frc consts  --      2.3414                 2.6843                 2.9731
 IR Inten    --     17.3087                61.4067                67.9139

                     25                     26                     27
                     A'                     A'                     A'
 Frequencies --   1536.8971              1642.9846              1656.9374
 Red. masses --      2.6280                 2.7795                 2.6206
 Frc consts  --      3.6574                 4.4206                 4.2390
 IR Inten    --    140.1593                64.8921               241.4660

                     28                     29                     30
                     A'                     A'                     A'
 Frequencies --   1720.7646              3212.0122              3248.0719
 Red. masses --      6.0511                 1.0897                 1.0963
 Frc consts  --     10.5567                 6.6237                 6.8147
 IR Inten    --     48.2127                 0.8212                 2.5403

                     31                     32                     33
                     A'                     A'                     A'
 Frequencies --   3633.8031              3645.3081              3766.9591
 Red. masses --      1.0468                 1.0786                 1.1047
 Frc consts  --      8.1440                 8.4443                 9.2356
 IR Inten    --    114.9386                76.8524                45.1369

 - Thermochemistry -
 -------------------
 Temperature   298.150 Kelvin.  Pressure   1.00000 Atm.
 Atom     1 has atomic number  6 and mass  12.00000

 Molecular mass:   111.04326 amu.
 Principal axes and moments of inertia in atomic units:
                           1         2         3
     Eigenvalues --   462.63394 885.903841348.53778
           X            0.99949  -0.03201   0.00000
           Y            0.03201   0.99949   0.00000
           Z           -0.00000   0.00000   1.00000
 This molecule is an asymmetric top.
 Rotational symmetry number  1.
 Warning -- assumption of classical behavior for rotation
           may cause significant error
 Rotational temperatures (Kelvin)      0.18722     0.09777     0.06423
 Rotational constants (GHZ):           3.90101     2.03718     1.33829
    4 imaginary frequencies ignored.
 Zero-point vibrational energy     241159.7 (Joules/Mol)
                                   57.63854 (Kcal/Mol)
 Warning -- explicit consideration of   8 degrees of freedom as
           vibrations may cause significant error
 Vibrational temperatures:    257.60   435.12   564.09   626.97   687.03
          (Kelvin)            701.14   744.83   835.83   997.51  1002.83
                             1092.56  1318.55  1409.29  1465.43  1589.36
                             1697.49  1758.39  1939.92  2108.89  2154.49
                             2211.25  2363.89  2383.96  2475.80  4621.37
                             4673.25  5228.23  5244.79  5419.81

 Zero-point correction=                           0.091853 (Hartree/Particle)
 Thermal correction to Energy=                    0.097682
 Thermal correction to Enthalpy=                  0.098626
 Thermal correction to Gibbs Free Energy=         0.061889
 Sum of electronic and zero-point Energies=           -394.597741
 Sum of electronic and thermal Energies=              -394.591912
 Sum of electronic and thermal Enthalpies=            -394.590968
 Sum of electronic and thermal Free Energies=         -394.627705

                     E (Thermal)             CV                S
                      KCal/Mol        Cal/Mol-Kelvin    Cal/Mol-Kelvin
 Total                   61.296             22.031             77.320
 Electronic               0.000              0.000              0.000
 Translational            0.889              2.981             40.030
 Rotational               0.889              2.981             27.804
 Vibrational             59.519             16.070              9.485
 Vibration     1          0.629              1.868              2.338
 Vibration     2          0.694              1.669              1.403
 Vibration     3          0.759              1.487              0.992
 Vibration     4          0.796              1.392              0.840
 Vibration     5          0.834              1.300              0.717
 Vibration     6          0.843              1.278              0.691
 Vibration     7          0.873              1.211              0.615
 Vibration     8          0.938              1.073              0.484

 Normal termination of Gaussian 16 at Tue Nov 22 13:46:49 2022.
