 Gaussian 16, Revision B.01,
 Gaussian 16:  ES64L-G16RevB.01 20-Dec-2017

 ---------------------------------------------------------
 #p freq td=(nstates=10) cam-b3lyp/6-311+G(d,p) symm=loose
 ---------------------------------------------------------

 ------------
 Uracil TDDFT
 ------------
 Symbolic Z-matrix:
 Charge =  0 Multiplicity = 1

                         Standard orientation:
 ---------------------------------------------------------------------
 Center     Atomic      Atomic             Coordinates (Angstroms)
 Number     Number       Type             X           Y           Z
 ---------------------------------------------------------------------
      1          6           0       -1.228126    0.361792   -0.000000
      2          6           0        0.055301   -1.699731    0.000000
      3          6           0        1.234421   -1.064892    0.000000
      4          6           0        1.270349    0.391010    0.000000
      5          7           0       -0.000000    0.986691    0.000000
      6          1           0       -0.026226   -2.778731   -0.000000
      7          1           0        2.172556   -1.596879    0.000000
      8          8           0        2.266360    1.076564    0.000000
      9          8           0       -2.283652    0.947576   -0.000000
     10          7           0       -1.136964   -1.020466   -0.000000
     11          1           0       -2.019061   -1.508516   -0.000000
     12          1           0       -0.021863    1.998362   -0.000000
 ---------------------------------------------------------------------

 SCF Done:  E(RCAM-B3LYP) =  -414.770071949     A.U. after   14 cycles

 Excitation energies and oscillator strengths:

 Excited State   1:      Singlet-A"     5.0994 eV  243.13 nm  f=0.0000  <S**2>=0.000
      26 -> 30        -0.16651
      28 -> 30         0.63343
      28 -> 33         0.21125
 This state for optimization and/or second-order correction.
 Total Energy, E(TD-HF/TD-DFT) =  -414.582670711
 Copying the excited state density for this state as the 1-particle RhoCI density.

 Excited State   2:      Singlet-A'     5.5012 eV  225.38 nm  f=0.1903  <S**2>=0.000
      27 -> 33         0.10965
      29 -> 30         0.68613

 Excited State   3:      Singlet-A"     6.1780 eV  200.69 nm  f=0.0032  <S**2>=0.000
      29 -> 31         0.69087

 Excited State   4:      Singlet-A"     6.3777 eV  194.40 nm  f=0.0000  <S**2>=0.000
      26 -> 30        -0.30292
      26 -> 33         0.39873
      26 -> 40        -0.11053
      28 -> 30        -0.17789
      28 -> 33         0.42544

 Excited State   5:      Singlet-A'     6.6155 eV  187.42 nm  f=0.0452  <S**2>=0.000
      27 -> 30         0.69221

 Excited State   6:      Singlet-A'     6.8814 eV  180.17 nm  f=0.1681  <S**2>=0.000
      29 -> 33         0.68852

 Excited State   7:      Singlet-A"     7.1650 eV  173.04 nm  f=0.0007  <S**2>=0.000
      26 -> 30         0.27033
      28 -> 33         0.14680
      29 -> 32         0.54720
      29 -> 34         0.21514
      29 -> 36        -0.11739
      29 -> 38        -0.10921

 Excited State   8:      Singlet-A"     7.1734 eV  172.84 nm  f=0.0002  <S**2>=0.000
      26 -> 30         0.51931
      28 -> 33         0.28437
      29 -> 32        -0.32570

 Excited State   9:      Singlet-A"     7.2370 eV  171.32 nm  f=0.0190  <S**2>=0.000
      26 -> 30        -0.13389
      27 -> 31        -0.11308
      29 -> 32        -0.15687
      29 -> 34         0.63731

 Excited State  10:      Singlet-A'     7.3517 eV  168.65 nm  f=0.0150  <S**2>=0.000
      26 -> 31         0.12618
      26 -> 34        -0.10709
      28 -> 31         0.51411
      28 -> 32        -0.40145
      28 -> 34         0.10029

 The electronic state is 1-A'.
 Alpha  occ. eigenvalues --  -19.19043 -19.18498 -14.46871 -14.45137 -10.41485
 Alpha  occ. eigenvalues --  -10.38058 -10.34157 -10.27386  -1.18339  -1.14825
 Alpha  occ. eigenvalues --   -1.08180  -1.02634  -0.89851  -0.78502  -0.75623
 Alpha  occ. eigenvalues --   -0.68760  -0.65063  -0.60693  -0.57377  -0.55833
 Alpha  occ. eigenvalues --   -0.53737  -0.50808  -0.50252  -0.49392  -0.45272
 Alpha  occ. eigenvalues --   -0.38102  -0.36552  -0.34867  -0.32450
 Alpha virt. eigenvalues --   -0.01305   0.00608   0.03659   0.04035   0.04196
 Alpha virt. eigenvalues --    0.05992   0.06585   0.07896   0.08357   0.09748
 Alpha virt. eigenvalues --    0.11110   0.11224   0.11836   0.14079   0.14519

 Mulliken charges:
               1
     1  C    0.406694
     2  C   -0.041604
     3  C    0.003469
     4  C    0.169654
     5  N   -0.438679
     6  H    0.160236
     7  H    0.162723
     8  O   -0.339754
     9  O   -0.368000
    10  N   -0.386992
    11  H    0.330830
    12  H    0.341423
 Sum of Mulliken charges =  -0.00000

 Dipole moment (field-independent basis, Debye):
    X=             -1.1346    Y=             -4.4796    Z=             -0.0000  Tot=              4.6210
 Quadrupole moment (field-independent basis, Debye-Ang):
   XX=            -59.1942   YY=            -38.5447   ZZ=            -46.7590
   XY=              1.6679   XZ=             -0.0000   YZ=              0.0000

  Exact polarizability:  91.234   3.526  82.057  -0.000  -0.000  39.681
 Approx polarizability: 107.280   7.931  79.489   0.000  -0.000  45.255

 ******    2 imaginary frequencies (negative Signs) ******

                      1                      2                      3
                     A"                     A"                     A"
 Frequencies --   -449.8357               -97.1377                99.3442
 Red. masses --     11.5111                 8.6225                 7.7731
 Frc consts  --      1.3724                 0.0479                 0.0452
 IR Inten    --      2.2169                 0.0424                 3.8346

                      4                      5                      6
                     A'                     A"                     A"
 Frequencies --    140.9117               407.6136               417.0915
 Red. masses --     10.8788                 1.3793                 2.0924
 Frc consts  --      0.1273                 0.1350                 0.2145
 IR Inten    --      6.6743                 1.4419                32.5496

                      7                      8                      9
                     A'                     A"                     A'
 Frequencies --    473.7384               499.3755               515.2442
 Red. masses --      7.1145                 1.1175                 8.0557
 Frc consts  --      0.9407                 0.1642                 1.2600
 IR Inten    --     13.9335                77.4690                 4.4528

                     10                     11                     12
                     A'                     A"                     A"
 Frequencies --    564.7452               600.1092               737.7188
 Red. masses --      8.1620                 1.2626                 7.6064
 Frc consts  --      1.5337                 0.2679                 2.4390
 IR Inten    --      8.3440               117.1352                62.7807

                     13                     14                     15
                     A'                     A"                     A'
 Frequencies --    755.7803               823.6386               924.7750
 Red. masses --      8.4325                 1.2284                 3.8799
 Frc consts  --      2.8379                 0.4910                 1.9550
 IR Inten    --      9.9694                 8.7254                34.3772

                     16                     17                     18
                     A'                     A'                     A'
 Frequencies --    979.5076              1094.4347              1157.8100
 Red. masses --      5.5034                 1.9306                 4.1434
 Frc consts  --      3.1110                 1.3625                 3.2725
 IR Inten    --      9.5428                48.5001                22.8151

                     19                     20                     21
                     A'                     A'                     A'
 Frequencies --   1235.2591              1286.9277              1399.0561
 Red. masses --      1.7271                 1.9887                 1.6231
 Frc consts  --      1.5527                 1.9405                 1.8718
 IR Inten    --     44.5947                 1.6835                32.6448

                     22                     23                     24
                     A'                     A'                     A'
 Frequencies --   1459.8256              1519.0887              1649.2395
 Red. masses --      1.3418                 2.0572                 6.3071
 Frc consts  --      1.6848                 2.7969                10.1076
 IR Inten    --      0.8786                 9.2118                91.2254

                     25                     26                     27
                     A'                     A'                     A'
 Frequencies --   1756.8977              1836.6067              3217.4011
 Red. masses --      9.6936                 8.3837                 1.0896
 Frc consts  --     17.6291                16.6616                 6.6457
 IR Inten    --    210.1827               550.3644                 4.1746

                     28                     29                     30
                     A'                     A'                     A'
 Frequencies --   3260.0761              3618.7058              3664.5112
 Red. masses --      1.0956                 1.0770                 1.0786
 Frc consts  --      6.8604                 8.3096                 8.5341
 IR Inten    --      1.5443                88.1516                95.5341

 - Thermochemistry -
 -------------------
 Temperature   298.150 Kelvin.  Pressure   1.00000 Atm.
 Atom     1 has atomic number  6 and mass  12.00000

 Molecular mass:   112.02728 amu.
 Principal axes and moments of inertia in atomic units:
                           1         2         3
     Eigenvalues --   461.38550 887.266251348.65175
           X            0.99944  -0.03350   0.00000
           Y            0.03350   0.99944   0.00000
           Z           -0.00000   0.00000   1.00000
 This molecule is an asymmetric top.
 Rotational symmetry number  1.
 Warning -- assumption of classical behavior for rotation
           may cause significant error
 Rotational temperatures (Kelvin)      0.18773     0.09762     0.06422
 Rotational constants (GHZ):           3.91157     2.03405     1.33818
    2 imaginary frequencies ignored.
 Zero-point vibrational energy     215898.6 (Joules/Mol)
                                   51.60101 (Kcal/Mol)
 Warning -- explicit consideration of   9 degrees of freedom as
           vibrations may cause significant error
 Vibrational temperatures:    142.93   202.74   586.47   600.10   681.60
          (Kelvin)            718.49   741.32   812.54   863.42  1061.41
                             1087.40  1185.03  1330.54  1409.29  1574.65
                             1665.83  1777.26  1851.60  2012.93  2100.36
                             2185.63  2372.89  2527.78  2642.47  4629.12
                             4690.52  5206.51  5272.41

 Zero-point correction=                           0.082231 (Hartree/Particle)
 Thermal correction to Energy=                    0.088523
 Thermal correction to Enthalpy=                  0.089467
 Thermal correction to Gibbs Free Energy=         0.051414
 Sum of electronic and zero-point Energies=           -414.500439
 Sum of electronic and thermal Energies=              -414.494148
 Sum of electronic and thermal Enthalpies=            -414.493204
 Sum of electronic and thermal Free Energies=         -414.531256

                     E (Thermal)             CV                S
                      KCal/Mol        Cal/Mol-Kelvin    Cal/Mol-Kelvin
 Total                   55.549             22.805             80.089
 Electronic               0.000              0.000              0.000
 Translational            0.889              2.981             40.057
 Rotational               0.889              2.981             27.803
 Vibrational             53.772             16.844             12.229
 Vibration     1          0.604              1.950              3.467
 Vibration     2          0.615              1.912              2.791
 Vibration     3          0.772              1.454              0.935
 Vibration     4          0.780              1.433              0.902
 Vibration     5          0.831              1.308              0.727
 Vibration     6          0.855              1.251              0.660
 Vibration     7          0.870              1.216              0.621
 Vibration     8          0.921              1.108              0.514
 Vibration     9          0.958              1.032              0.449

 Normal termination of Gaussian 16 at Tue Nov 22 13:56:37 2022.
