 Gaussian 16, Revision B.01,
 Gaussian 16:  ES64L-G16RevB.01 20-Dec-2017

 ------------------------------------
 #p opt cam-b3lyp/6-311+G(d,p) nosymm
 ------------------------------------

 -------
 Guanine
 -------
 Symbolic Z-matrix:
 Charge =  0 Multiplicity = 1

 SCF Done:  E(RCAM-B3LYP) =  -542.474400286     A.U. after   15 cycles

 Alpha  occ. eigenvalues --  -19.16614 -14.45293 -14.45013 -14.43540 -14.38994
 Alpha  occ. eigenvalues --  -14.38052 -10.39319 -10.36314 -10.32779 -10.31376
 Alpha  occ. eigenvalues --  -10.26657  -1.14916  -1.12237  -1.10375  -1.00995
 Alpha  occ. eigenvalues --   -1.00161  -0.96865  -0.85271  -0.76193  -0.74931
 Alpha  occ. eigenvalues --   -0.70673  -0.68978  -0.63300  -0.62973  -0.60183
 Alpha  occ. eigenvalues --   -0.56901  -0.56449  -0.53966  -0.51332  -0.50879
 Alpha  occ. eigenvalues --   -0.49620  -0.47377  -0.39399  -0.38793  -0.36130
 Alpha  occ. eigenvalues --   -0.35339  -0.34374  -0.33459  -0.27149
 Alpha virt. eigenvalues --    0.00442   0.02328   0.02980   0.03341   0.04376
 Alpha virt. eigenvalues --    0.05419   0.06288   0.06595   0.07556   0.08290
 Alpha virt. eigenvalues --    0.09530   0.09654   0.10170   0.11684   0.12431

 Mulliken charges:
               1
     1  N   -0.278819
     2  C    0.155525
     3  N   -0.203699
     4  C    0.171568
     5  C    0.083809
     6  O   -0.351245
     7  N   -0.380075
     8  C    0.396008
     9  N   -0.492493
    10  N   -0.266501
    11  C   -0.129807
    12  H    0.135689
    13  H    0.298127
    14  H    0.267701
    15  H    0.291563
    16  H    0.302650
 Sum of Mulliken charges =  -0.00000

 Dipole moment (field-independent basis, Debye):
    X=             -3.0817    Y=             -6.2669    Z=              0.0000  Tot=              6.9837
 Quadrupole moment (field-independent basis, Debye-Ang):
   XX=            -54.7553   YY=            -57.8781   ZZ=            -65.2131
   XY=            -17.6686   XZ=              0.0000   YZ=             -0.0000

 Optimization completed.
    -- Stationary point found.

                          Input orientation:
 ---------------------------------------------------------------------
 Center     Atomic      Atomic             Coordinates (Angstroms)
 Number     Number       Type             X           Y           Z
 ---------------------------------------------------------------------
      1          7           0       -2.164547    0.729374    0.000000
      2          6           0       -1.823669    2.066210    0.000000
      3          7           0       -0.540931    2.253857    0.000000
      4          6           0        0.000000    0.987621    0.000000
      5          6           0        1.368570    0.557966    0.000000
      6          8           0        2.400416    1.186125    0.000000
      7          7           0        1.424157   -0.869681    0.000000
      8          6           0        0.356682   -1.723002    0.000000
      9          7           0        0.627528   -3.053172    0.000000
     10          7           0       -0.882076   -1.320799    0.000000
     11          6           0       -0.996160    0.028079    0.000000
     12          1           0       -2.573196    2.842649    0.000000
     13          1           0        2.367552   -1.232740    0.000000
     14          1           0        1.561780   -3.418613    0.000000
     15          1           0       -0.152003   -3.687334    0.000000
     16          1           0       -3.088910    0.328741    0.000000
 ---------------------------------------------------------------------

 Normal termination of Gaussian 16 at Tue Nov 22 10:46:51 2022.
