 Gaussian 16, Revision B.01,
 Gaussian 16:  ES64L-G16RevB.01 20-Dec-2017

 ------------------------------------------------------------------
 #p freq cam-b3lyp/6-311+g(d,p) scrf=(solvent=water,pcm) symm=loose
 ------------------------------------------------------------------

 ----------------
 Thymine solvated
 ----------------
 Symbolic Z-matrix:
 Charge =  0 Multiplicity = 1

                         Standard orientation:
 ---------------------------------------------------------------------
 Center     Atomic      Atomic             Coordinates (Angstroms)
 Number     Number       Type             X           Y           Z
 ---------------------------------------------------------------------
      1          7           0       -0.231165   -0.035141   -0.187654
      2          6           0        1.096368   -0.361997   -0.138091
      3          7           0        1.943485    0.693041    0.000329
      4          6           0        1.507124    1.988439    0.094046
      5          6           0        0.203040    2.318540    0.062719
      6          6           0       -0.757961    1.241995   -0.079486
      7          1           0       -0.888783   -0.813428   -0.333259
      8          8           0        1.493654   -1.526624   -0.212117
      9          1           0        2.937877    0.460730    0.032007
     10          1           0        2.289814    2.727806    0.199297
     11          8           0       -1.975809    1.412395   -0.108376
     12          6           0       -0.298918    3.723573    0.170889
     13          1           0       -0.877521    4.000626   -0.712721
     14          1           0       -0.955053    3.837803    1.036180
     15          1           0        0.531929    4.421320    0.272664
     16          8           0       -2.156963   -2.189392   -0.545540
     17          1           0        0.535018   -3.051632    0.413739
     18          8           0        4.219759   -1.004202    0.052340
     19          1           0       -3.350109    0.329652    0.141206
     20          1           0       -2.956623   -1.696599   -0.248786
     21          1           0       -2.337462   -2.493339   -1.441344
     22          8           0       -0.116054   -3.712336    0.699184
     23          1           0       -0.953795   -3.345363    0.374927
     24          1           0        3.437732   -1.554817   -0.124989
     25          1           0        4.871171   -1.226960   -0.619765
     26          8           0       -4.008523   -0.394843    0.189792
     27          1           0       -4.416871   -0.344381    1.059404
 ---------------------------------------------------------------------

 SCF Done:  E(RCAM-B3LYP) =  -759.890860891     A.U. after   14 cycles

 The electronic state is 1-A.
 Alpha  occ. eigenvalues --  -19.21016 -19.20613 -19.20544 -19.19873 -19.19593
 Alpha  occ. eigenvalues --  -19.17490 -14.45664 -14.45096 -10.41842 -10.38600
 Alpha  occ. eigenvalues --  -10.32422 -10.27438 -10.24779  -1.18544  -1.15296
 Alpha  occ. eigenvalues --   -1.11202  -1.10210  -1.09565  -1.07898  -1.07002
 Alpha  occ. eigenvalues --   -1.02532  -0.91064  -0.80273  -0.76920  -0.75276
 Alpha  occ. eigenvalues --   -0.65771  -0.65397  -0.62831  -0.61930  -0.61378
 Alpha  occ. eigenvalues --   -0.60076  -0.58872  -0.57565  -0.55876  -0.53779
 Alpha  occ. eigenvalues --   -0.51778  -0.51004  -0.50075  -0.48221  -0.47884
 Alpha  occ. eigenvalues --   -0.47196  -0.46385  -0.45833  -0.44019  -0.43403
 Alpha  occ. eigenvalues --   -0.41109  -0.40342  -0.39903  -0.38465  -0.37390
 Alpha  occ. eigenvalues --   -0.37136  -0.36308  -0.31008
 Alpha virt. eigenvalues --   -0.00976   0.02635   0.03431   0.03887   0.04305
 Alpha virt. eigenvalues --    0.06050   0.06465   0.07121   0.07329   0.08949
 Alpha virt. eigenvalues --    0.09487   0.09852   0.10411   0.11410   0.12796

 Mulliken charges:
               1
     1  N   -0.507981
     2  C    0.481290
     3  N   -0.406503
     4  C   -0.305383
     5  C    0.714028
     6  C    0.001709
     7  H    0.439260
     8  O   -0.508717
     9  H    0.428947
    10  H    0.184959
    11  O   -0.436596
    12  C   -0.575396
    13  H    0.167501
    14  H    0.168580
    15  H    0.156694
    16  O   -0.709786
    17  H    0.326296
    18  O   -0.593985
    19  H    0.357321
    20  H    0.395293
    21  H    0.305880
    22  O   -0.679911
    23  H    0.349875
    24  H    0.296660
    25  H    0.305179
    26  O   -0.663902
    27  H    0.308686
 Sum of Mulliken charges =  -0.00000

 Dipole moment (field-independent basis, Debye):
    X=              2.5129    Y=              7.5757    Z=             -2.3615  Tot=              8.3236
 Quadrupole moment (field-independent basis, Debye-Ang):
   XX=            -69.9571   YY=            -95.7872   ZZ=            -77.4642
   XY=             10.9442   XZ=            -11.5466   YZ=             12.4380

  Exact polarizability: 176.822 -16.685 161.209   0.298   4.491  96.225
 Approx polarizability: 154.522 -12.125 133.280   0.007   3.648  89.933

                      1                      2                      3
                      A                      A                      A
 Frequencies --     23.6997                40.6518                53.9545
 Red. masses --      6.0287                 6.4424                 5.6016
 Frc consts  --      0.0020                 0.0063                 0.0096
 IR Inten    --      5.1556                 4.1475                 2.4399

                      4                      5                      6
                      A                      A                      A
 Frequencies --     62.8630                69.5887               101.7442
 Red. masses --      5.4099                 6.2389                 5.8112
 Frc consts  --      0.0126                 0.0178                 0.0354
 IR Inten    --      8.9455                 6.7734                36.7654

                      7                      8                      9
                      A                      A                      A
 Frequencies --    118.2485               138.7096               149.1788
 Red. masses --      4.3213                 6.5808                 5.7724
 Frc consts  --      0.0356                 0.0746                 0.0757
 IR Inten    --      4.9959                17.0598                 8.9944

                     10                     11                     12
                      A                      A                      A
 Frequencies --    159.8440               167.9592               175.7391
 Red. masses --      1.0998                 4.4495                 6.7106
 Frc consts  --      0.0166                 0.0740                 0.1221
 IR Inten    --      0.3393                10.7797                 4.8451

                     13                     14                     15
                      A                      A                      A
 Frequencies --    183.5732               192.1327               224.4472
 Red. masses --      6.4941                 4.9988                 1.1866
 Frc consts  --      0.1289                 0.1087                 0.0352
 IR Inten    --      3.3076                32.7639               172.5006

                     16                     17                     18
                      A                      A                      A
 Frequencies --    254.1260               282.0351               305.9821
 Red. masses --      1.1086                 5.0827                 2.9302
 Frc consts  --      0.0422                 0.2382                 0.1616
 IR Inten    --    194.4830                18.8886                 0.4429

                     19                     20                     21
                      A                      A                      A
 Frequencies --    309.8139               325.0444               344.1425
 Red. masses --      3.3006                 1.1580                 1.2170
 Frc consts  --      0.1867                 0.0721                 0.0849
 IR Inten    --     31.9381               133.5328               195.4838

                     22                     23                     24
                      A                      A                      A
 Frequencies --    395.8559               415.6368               431.5848
 Red. masses --      1.1062                 2.2193                 2.7118
 Frc consts  --      0.1021                 0.2259                 0.2976
 IR Inten    --     47.5668                16.9591                 2.1571

                     25                     26                     27
                      A                      A                      A
 Frequencies --    438.6288               465.4920               482.3865
 Red. masses --      1.6172                 1.1843                 3.9298
 Frc consts  --      0.1833                 0.1512                 0.5388
 IR Inten    --    116.6812                89.1245               119.1150

                     28                     29                     30
                      A                      A                      A
 Frequencies --    531.9302               567.0993               608.9593
 Red. masses --      1.0810                 3.7954                 1.2514
 Frc consts  --      0.1802                 0.7192                 0.2734
 IR Inten    --     24.6527                87.4195               353.0375

                     31                     32                     33
                      A                      A                      A
 Frequencies --    625.2400               636.2481               684.2638
 Red. masses --      1.1599                 3.6904                 1.0854
 Frc consts  --      0.2672                 0.8802                 0.2994
 IR Inten    --    383.5448                45.8779               265.8015

                     34                     35                     36
                      A                      A                      A
 Frequencies --    762.3258               766.6493               783.2079
 Red. masses --      2.4714                 5.2577                 7.2790
 Frc consts  --      0.8462                 1.8207                 2.6307
 IR Inten    --     51.9775                20.3623                52.9812

                     37                     38                     39
                      A                      A                      A
 Frequencies --    809.4517               825.0917               882.3865
 Red. masses --      1.5869                 6.3341                 1.0965
 Frc consts  --      0.6126                 2.5406                 0.5030
 IR Inten    --     90.7090                39.0344               305.1214

                     40                     41                     42
                      A                      A                      A
 Frequencies --    912.2086               956.4499              1012.2768
 Red. masses --      1.0692                 1.3546                 1.8160
 Frc consts  --      0.5242                 0.7301                 1.0964
 IR Inten    --    179.3181                14.5482                11.8704

                     43                     44                     45
                      A                      A                      A
 Frequencies --   1051.7975              1080.6899              1201.8191
 Red. masses --      2.3163                 1.4671                 3.3262
 Frc consts  --      1.5098                 1.0095                 2.8306
 IR Inten    --     14.4431                 2.6198                 3.8484

                     46                     47                     48
                      A                      A                      A
 Frequencies --   1248.7788              1270.7560              1397.0368
 Red. masses --      2.9607                 2.4541                 1.9450
 Frc consts  --      2.7203                 2.3348                 2.2366
 IR Inten    --    231.9611                57.9580                 2.7258

                     49                     50                     51
                      A                      A                      A
 Frequencies --   1429.4934              1470.7922              1478.7287
 Red. masses --      1.2930                 1.0409                 2.7227
 Frc consts  --      1.5567                 1.3266                 3.5078
 IR Inten    --      8.6523                14.7707               258.7535

                     52                     53                     54
                      A                      A                      A
 Frequencies --   1492.2555              1504.5582              1552.3292
 Red. masses --      1.1264                 1.8931                 2.7695
 Frc consts  --      1.4779                 2.5249                 3.9321
 IR Inten    --      3.2414               176.5149                65.3991

                     55                     56                     57
                      A                      A                      A
 Frequencies --   1594.8072              1606.2931              1633.1115
 Red. masses --      1.1091                 1.0879                 1.0917
 Frc consts  --      1.6620                 1.6539                 1.7156
 IR Inten    --    374.8117               100.0412               154.3877

                     58                     59                     60
                      A                      A                      A
 Frequencies --   1669.2502              1710.0514              1726.4697
 Red. masses --      1.1965                 3.3881                 5.8901
 Frc consts  --      1.9643                 5.8375                10.3440
 IR Inten    --    796.5526               994.6125               293.7928

                     61                     62                     63
                      A                      A                      A
 Frequencies --   1749.6753              3059.8481              3117.0179
 Red. masses --      3.4875                 1.0365                 1.1018
 Frc consts  --      6.2903                 5.7178                 6.3074
 IR Inten    --   1033.0878                29.1712                17.4170

                     64                     65                     66
                      A                      A                      A
 Frequencies --   3144.5535              3234.9848              3295.0748
 Red. masses --      1.1031                 1.0956                 1.0846
 Frc consts  --      6.4268                 6.7551                 6.9380
 IR Inten    --     18.2424                 2.7954               850.1552

                     67                     68                     69
                      A                      A                      A
 Frequencies --   3410.5666              3434.6023              3523.2177
 Red. masses --      1.0655                 1.0835                 1.0630
 Frc consts  --      7.3025                 7.5303                 7.7745
 IR Inten    --    994.2770               901.5419              1386.6393

                     70                     71                     72
                      A                      A                      A
 Frequencies --   3668.4808              3695.2023              3734.8105
 Red. masses --      1.0583                 1.0471                 1.0822
 Frc consts  --      8.3910                 8.4241                 8.8936
 IR Inten    --    487.7148               515.1789               473.4217

                     73                     74                     75
                      A                      A                      A
 Frequencies --   3879.3354              3892.8910              3896.9959
 Red. masses --      1.0668                 1.0681                 1.0712
 Frc consts  --      9.4592                 9.5369                 9.5846
 IR Inten    --    137.1605               135.9548               151.9714

 - Thermochemistry -
 -------------------
 Temperature   298.150 Kelvin.  Pressure   1.00000 Atm.
 Atom     1 has atomic number  7 and mass  14.00307

 Molecular mass:   198.08519 amu.
 Principal axes and moments of inertia in atomic units:
                           1         2         3
     Eigenvalues --  2871.809123352.579676072.96539
           X            0.99931   0.03682  -0.00439
           Y           -0.03679   0.99930   0.00686
           Z            0.00464  -0.00669   0.99997
 This molecule is an asymmetric top.
 Rotational symmetry number  1.
 Warning -- assumption of classical behavior for rotation
           may cause significant error
 Rotational temperatures (Kelvin)      0.03016     0.02584     0.01426
 Rotational constants (GHZ):           0.62843     0.53831     0.29718
 Zero-point vibrational energy     565433.7 (Joules/Mol)
                                  135.14189 (Kcal/Mol)
 Warning -- explicit consideration of  30 degrees of freedom as
           vibrations may cause significant error
 Vibrational temperatures:     34.10    58.49    77.63    90.45   100.12
          (Kelvin)            146.39   170.13   199.57   214.64   229.98
                              241.66   252.85   264.12   276.44   322.93
                              365.63   405.79   440.24   445.75   467.67
                              495.14   569.55   598.01   620.95   631.09
                              669.74   694.05   765.33   815.93   876.16
                              899.58   915.42   984.50  1096.82  1103.04
                             1126.86  1164.62  1187.12  1269.56  1312.46
                             1376.12  1456.44  1513.30  1554.87  1729.15
                             1796.71  1828.33  2010.02  2056.72  2116.14
                             2127.56  2147.02  2164.72  2233.46  2294.57
                             2311.10  2349.68  2401.68  2460.38  2484.00
                             2517.39  4402.44  4484.69  4524.31  4654.42
                             4740.88  4907.04  4941.63  5069.12  5278.13
                             5316.57  5373.56  5581.50  5601.00  5606.91

 Zero-point correction=                           0.215362 (Hartree/Particle)
 Thermal correction to Energy=                    0.234479
 Thermal correction to Enthalpy=                  0.235424
 Thermal correction to Gibbs Free Energy=         0.167553
 Sum of electronic and zero-point Energies=           -759.675499
 Sum of electronic and thermal Energies=              -759.656381
 Sum of electronic and thermal Enthalpies=            -759.655437
 Sum of electronic and thermal Free Energies=         -759.723308

                     E (Thermal)             CV                S
                      KCal/Mol        Cal/Mol-Kelvin    Cal/Mol-Kelvin
 Total                  147.138             66.287            142.847
 Electronic               0.000              0.000              0.000
 Translational            0.889              2.981             41.755
 Rotational               0.889              2.981             32.436
 Vibrational            145.361             60.325             68.655
 Vibration     1          0.593              1.985              6.297
 Vibration     2          0.594              1.981              5.227
 Vibration     3          0.596              1.976              4.667
 Vibration     4          0.597              1.972              4.365
 Vibration     5          0.598              1.969              4.165
 Vibration     6          0.604              1.948              3.421
 Vibration     7          0.608              1.934              3.129
 Vibration     8          0.614              1.915              2.822
 Vibration     9          0.618              1.904              2.683
 Vibration    10          0.622              1.892              2.552
 Vibration    11          0.625              1.882              2.458
 Vibration    12          0.628              1.872              2.373
 Vibration    13          0.631              1.862              2.292
 Vibration    14          0.634              1.851              2.207
 Vibration    15          0.649              1.804              1.923
 Vibration    16          0.665              1.756              1.702
 Vibration    17          0.681              1.707              1.521
 Vibration    18          0.696              1.662              1.384
 Vibration    19          0.699              1.655              1.363
 Vibration    20          0.709              1.625              1.285
 Vibration    21          0.723              1.587              1.193
 Vibration    22          0.763              1.479              0.978
 Vibration    23          0.779              1.436              0.907
 Vibration    24          0.793              1.401              0.853
 Vibration    25          0.799              1.386              0.831
 Vibration    26          0.823              1.327              0.750
 Vibration    27          0.839              1.289              0.704
 Vibration    28          0.887              1.179              0.583
 Vibration    29          0.923              1.102              0.510
 Vibration    30          0.968              1.013              0.435

 Normal termination of Gaussian 16 at Thu Jan  5 11:17:19 2023.
