 Gaussian 16, Revision B.01,
 Gaussian 16:  ES64L-G16RevB.01 20-Dec-2017

 -----------------------------------------------------------------
 #p opt cam-b3lyp/6-311+G(d,p) scrf=(solvent=water,pcm) symm=loose
 -----------------------------------------------------------------

 ----------------
 Thymine solvated
 ----------------
 Symbolic Z-matrix:
 Charge =  0 Multiplicity = 1

 SCF Done:  E(RCAM-B3LYP) =  -454.075279694     A.U. after   15 cycles
 SCF Done:  E(RCAM-B3LYP) =  -454.090192549     A.U. after   14 cycles
 SCF Done:  E(RCAM-B3LYP) =  -454.091772430     A.U. after   13 cycles
 SCF Done:  E(RCAM-B3LYP) =  -454.091874732     A.U. after   11 cycles
 SCF Done:  E(RCAM-B3LYP) =  -454.091881678     A.U. after    9 cycles
 SCF Done:  E(RCAM-B3LYP) =  -454.091882186     A.U. after    9 cycles
 Optimization completed.
    -- Stationary point found.

                         Standard orientation:
 ---------------------------------------------------------------------
 Center     Atomic      Atomic             Coordinates (Angstroms)
 Number     Number       Type             X           Y           Z
 ---------------------------------------------------------------------
      1          7           0        0.156138   -1.656335    0.000000
      2          6           0        1.344867   -0.977425    0.000000
      3          7           0        1.192643    0.390193    0.000000
      4          6           0       -0.000000    1.108780    0.000000
      5          6           0       -1.210340    0.299711    0.000000
      6          6           0       -1.070078   -1.036681    0.000000
      7          8           0        2.432686   -1.524527    0.000000
      8          8           0        0.026832    2.329250    0.000000
      9          1           0        0.215497   -2.664342    0.000000
     10          1           0        2.048538    0.931278    0.000000
     11          6           0       -2.535831    0.993844    0.000000
     12          1           0       -1.918639   -1.707514    0.000000
     13          1           0       -3.350702    0.270070    0.000000
     14          1           0       -2.642006    1.633171    0.878966
     15          1           0       -2.642006    1.633171   -0.878966
 ---------------------------------------------------------------------

 The electronic state is 1-A'.
 Alpha  occ. eigenvalues --  -19.18790 -19.18685 -14.45672 -14.44948 -10.41090
 Alpha  occ. eigenvalues --  -10.37830 -10.32119 -10.27093 -10.24652  -1.17831
 Alpha  occ. eigenvalues --   -1.14564  -1.07324  -1.02133  -0.90732  -0.79948
 Alpha  occ. eigenvalues --   -0.76507  -0.74914  -0.64981  -0.64841  -0.59539
 Alpha  occ. eigenvalues --   -0.57030  -0.55435  -0.52787  -0.50913  -0.50503
 Alpha  occ. eigenvalues --   -0.47641  -0.47576  -0.45674  -0.43174  -0.38003
 Alpha  occ. eigenvalues --   -0.36564  -0.35195  -0.30564
 Alpha virt. eigenvalues --   -0.00420   0.02719   0.04155   0.04360   0.04443
 Alpha virt. eigenvalues --    0.06222   0.06830   0.07348   0.07936   0.09219
 Alpha virt. eigenvalues --    0.10039   0.10583   0.10790   0.12680   0.14052

 Mulliken charges:
               1
     1  N   -0.384757
     2  C    0.449245
     3  N   -0.439854
     4  C    0.136757
     5  C    0.603661
     6  C   -0.297309
     7  O   -0.461325
     8  O   -0.433949
     9  H    0.373114
    10  H    0.367216
    11  C   -0.581047
    12  H    0.182067
    13  H    0.153432
    14  H    0.166374
    15  H    0.166374
 Sum of Mulliken charges =  -0.00000

 Dipole moment (field-independent basis, Debye):
    X=             -4.5901    Y=             -4.1949    Z=             -0.0000  Tot=              6.2182
 Quadrupole moment (field-independent basis, Debye-Ang):
   XX=            -55.8320   YY=            -58.2547   ZZ=            -52.8794
   XY=             10.7229   XZ=              0.0000   YZ=             -0.0000

 Normal termination of Gaussian 16 at Thu Jan  5 10:31:23 2023.
