 Gaussian 16, Revision B.01,
 Gaussian 16:  ES64L-G16RevB.01 20-Dec-2017

 -----------------------------------------------------------------
 #p opt cam-b3lyp/6-311+G(d,p) scrf=(solvent=water,pcm) symm=loose
 -----------------------------------------------------------------

 ----------------
 Thymine solvated
 ----------------
 Symbolic Z-matrix:
 Charge =  0 Multiplicity = 1

 SCF Done:  E(RCAM-B3LYP) =  -759.889956893     A.U. after   14 cycles
 SCF Done:  E(RCAM-B3LYP) =  -759.890265470     A.U. after   11 cycles
 SCF Done:  E(RCAM-B3LYP) =  -759.890428609     A.U. after   11 cycles
 SCF Done:  E(RCAM-B3LYP) =  -759.890528015     A.U. after   11 cycles
 SCF Done:  E(RCAM-B3LYP) =  -759.890624543     A.U. after   12 cycles
 SCF Done:  E(RCAM-B3LYP) =  -759.890726077     A.U. after   12 cycles
 SCF Done:  E(RCAM-B3LYP) =  -759.890776482     A.U. after   11 cycles
 SCF Done:  E(RCAM-B3LYP) =  -759.890818160     A.U. after   11 cycles
 SCF Done:  E(RCAM-B3LYP) =  -759.890833448     A.U. after   10 cycles
 SCF Done:  E(RCAM-B3LYP) =  -759.890842626     A.U. after   10 cycles
 SCF Done:  E(RCAM-B3LYP) =  -759.890847908     A.U. after    9 cycles
 SCF Done:  E(RCAM-B3LYP) =  -759.890851739     A.U. after    9 cycles
 SCF Done:  E(RCAM-B3LYP) =  -759.890854989     A.U. after   10 cycles
 SCF Done:  E(RCAM-B3LYP) =  -759.890857776     A.U. after    9 cycles
 SCF Done:  E(RCAM-B3LYP) =  -759.890859521     A.U. after   10 cycles
 SCF Done:  E(RCAM-B3LYP) =  -759.890860148     A.U. after    9 cycles
 SCF Done:  E(RCAM-B3LYP) =  -759.890860471     A.U. after    9 cycles
 SCF Done:  E(RCAM-B3LYP) =  -759.890860703     A.U. after    8 cycles
 SCF Done:  E(RCAM-B3LYP) =  -759.890860891     A.U. after    8 cycles
 Optimization completed.
    -- Stationary point found.

                         Standard orientation:
 ---------------------------------------------------------------------
 Center     Atomic      Atomic             Coordinates (Angstroms)
 Number     Number       Type             X           Y           Z
 ---------------------------------------------------------------------
      1          7           0       -0.231165   -0.035141   -0.187654
      2          6           0        1.096368   -0.361997   -0.138091
      3          7           0        1.943485    0.693040    0.000329
      4          6           0        1.507125    1.988438    0.094046
      5          6           0        0.203041    2.318540    0.062719
      6          6           0       -0.757960    1.241995   -0.079486
      7          1           0       -0.888783   -0.813428   -0.333259
      8          8           0        1.493653   -1.526625   -0.212117
      9          1           0        2.937877    0.460729    0.032007
     10          1           0        2.289815    2.727805    0.199297
     11          8           0       -1.975808    1.412396   -0.108376
     12          6           0       -0.298916    3.723573    0.170889
     13          1           0       -0.877519    4.000626   -0.712721
     14          1           0       -0.955051    3.837803    1.036180
     15          1           0        0.531931    4.421320    0.272664
     16          8           0       -2.156964   -2.189391   -0.545540
     17          1           0        0.535017   -3.051632    0.413739
     18          8           0        4.219759   -1.004204    0.052340
     19          1           0       -3.350109    0.329653    0.141206
     20          1           0       -2.956624   -1.696598   -0.248786
     21          1           0       -2.337463   -2.493338   -1.441344
     22          8           0       -0.116056   -3.712336    0.699184
     23          1           0       -0.953796   -3.345363    0.374927
     24          1           0        3.437731   -1.554818   -0.124989
     25          1           0        4.871170   -1.226962   -0.619765
     26          8           0       -4.008523   -0.394841    0.189792
     27          1           0       -4.416871   -0.344379    1.059404
 ---------------------------------------------------------------------

 The electronic state is 1-A.
 Alpha  occ. eigenvalues --  -19.21016 -19.20613 -19.20544 -19.19873 -19.19593
 Alpha  occ. eigenvalues --  -19.17490 -14.45664 -14.45096 -10.41842 -10.38600
 Alpha  occ. eigenvalues --  -10.32422 -10.27438 -10.24779  -1.18544  -1.15296
 Alpha  occ. eigenvalues --   -1.11203  -1.10210  -1.09565  -1.07898  -1.07002
 Alpha  occ. eigenvalues --   -1.02532  -0.91064  -0.80273  -0.76920  -0.75276
 Alpha  occ. eigenvalues --   -0.65771  -0.65397  -0.62831  -0.61930  -0.61378
 Alpha  occ. eigenvalues --   -0.60076  -0.58872  -0.57565  -0.55876  -0.53779
 Alpha  occ. eigenvalues --   -0.51778  -0.51004  -0.50075  -0.48221  -0.47884
 Alpha  occ. eigenvalues --   -0.47196  -0.46385  -0.45833  -0.44019  -0.43403
 Alpha  occ. eigenvalues --   -0.41109  -0.40342  -0.39903  -0.38465  -0.37390
 Alpha  occ. eigenvalues --   -0.37136  -0.36308  -0.31008
 Alpha virt. eigenvalues --   -0.00977   0.02635   0.03431   0.03887   0.04305
 Alpha virt. eigenvalues --    0.06050   0.06465   0.07121   0.07329   0.08949
 Alpha virt. eigenvalues --    0.09487   0.09852   0.10411   0.11410   0.12796

 Mulliken charges:
               1
     1  N   -0.507981
     2  C    0.481290
     3  N   -0.406502
     4  C   -0.305382
     5  C    0.714028
     6  C    0.001709
     7  H    0.439260
     8  O   -0.508717
     9  H    0.428947
    10  H    0.184959
    11  O   -0.436596
    12  C   -0.575396
    13  H    0.167501
    14  H    0.168580
    15  H    0.156694
    16  O   -0.709786
    17  H    0.326296
    18  O   -0.593985
    19  H    0.357321
    20  H    0.395293
    21  H    0.305880
    22  O   -0.679911
    23  H    0.349875
    24  H    0.296660
    25  H    0.305179
    26  O   -0.663902
    27  H    0.308687
 Sum of Mulliken charges =  -0.00000

 Dipole moment (field-independent basis, Debye):
    X=              2.5129    Y=              7.5757    Z=             -2.3615  Tot=              8.3236
 Quadrupole moment (field-independent basis, Debye-Ang):
   XX=            -69.9571   YY=            -95.7872   ZZ=            -77.4642
   XY=             10.9442   XZ=            -11.5466   YZ=             12.4380

 Normal termination of Gaussian 16 at Thu Jan  5 11:04:30 2023.
