 Gaussian 16, Revision B.01,
 Gaussian 16:  ES64L-G16RevB.01 20-Dec-2017

 ----------------------------------------------------------------
 #p freq td=(nstates=10,root=2) cam-b3lyp/6-311+G(d,p) symm=loose
 ----------------------------------------------------------------

 ----------------------------------
 Adenine TDDFT second excited state
 ----------------------------------
 Symbolic Z-matrix:
 Charge =  0 Multiplicity = 1

                         Standard orientation:
 ---------------------------------------------------------------------
 Center     Atomic      Atomic             Coordinates (Angstroms)
 Number     Number       Type             X           Y           Z
 ---------------------------------------------------------------------
      1          6           0        0.664555   -2.021821    0.000000
      2          7           0        1.659008   -1.127792    0.000000
      3          6           0        1.353886    0.171290    0.000000
      4          6           0        0.000000    0.543282    0.000000
      5          6           0       -0.918721   -0.495494    0.000000
      6          7           0       -0.641588   -1.798863    0.000000
      7          1           0        0.973540   -3.061995    0.000000
      8          7           0        2.348282    1.080832    0.000000
      9          1           0        3.301658    0.761362    0.000000
     10          1           0        2.137417    2.063682    0.000000
     11          7           0       -0.633203    1.770424    0.000000
     12          7           0       -2.142670    0.123487    0.000000
     13          6           0       -1.899333    1.476588    0.000000
     14          1           0       -3.038351   -0.337796    0.000000
     15          1           0       -2.705393    2.195054    0.000000
 ---------------------------------------------------------------------

 SCF Done:  E(RCAM-B3LYP) =  -467.232522580     A.U. after   14 cycles

 Excitation energies and oscillator strengths:

 Excited State   1:      Singlet-A"     5.3687 eV  230.94 nm  f=0.0006  <S**2>=0.000
      34 -> 36         0.66554
      34 -> 42        -0.11829
      34 -> 44        -0.13206

 Excited State   2:      Singlet-A'     5.3871 eV  230.15 nm  f=0.2856  <S**2>=0.000
      33 -> 39         0.13532
      35 -> 36         0.68700
 This state for optimization and/or second-order correction.
 Total Energy, E(TD-HF/TD-DFT) =  -467.034548877
 Copying the excited state density for this state as the 1-particle RhoCI density.

 Excited State   3:      Singlet-A'     5.5238 eV  224.46 nm  f=0.0150  <S**2>=0.000
      33 -> 36        -0.35900
      35 -> 39         0.59308

 Excited State   4:      Singlet-A"     5.8653 eV  211.39 nm  f=0.0085  <S**2>=0.000
      35 -> 37         0.52807
      35 -> 38        -0.41595
      35 -> 43        -0.11821

 Excited State   5:      Singlet-A"     5.9539 eV  208.24 nm  f=0.0033  <S**2>=0.000
      34 -> 39         0.67652

 Excited State   6:      Singlet-A"     6.2131 eV  199.55 nm  f=0.0014  <S**2>=0.000
      31 -> 37        -0.10349
      35 -> 37         0.40562
      35 -> 38         0.52965

 Excited State   7:      Singlet-A"     6.3051 eV  196.64 nm  f=0.0010  <S**2>=0.000
      30 -> 44        -0.11338
      32 -> 36         0.64569
      34 -> 42         0.11527
      34 -> 44         0.13938

 Excited State   8:      Singlet-A'     6.6153 eV  187.42 nm  f=0.4436  <S**2>=0.000
      33 -> 36         0.52609
      33 -> 39        -0.11304
      34 -> 38         0.10992
      35 -> 39         0.31004
      35 -> 42         0.22219
      35 -> 44         0.13153

 Excited State   9:      Singlet-A"     6.7537 eV  183.58 nm  f=0.0028  <S**2>=0.000
      35 -> 37        -0.12689
      35 -> 40         0.56289
      35 -> 41        -0.17473
      35 -> 43        -0.26242
      35 -> 45         0.17480

 Excited State  10:      Singlet-A'     6.8001 eV  182.33 nm  f=0.0179  <S**2>=0.000
      33 -> 36        -0.21324
      33 -> 42         0.10812
      35 -> 39        -0.17856
      35 -> 42         0.57298
      35 -> 44         0.20805

 The electronic state is 1-A'.
 Alpha  occ. eigenvalues --  -14.45724 -14.41254 -14.39240 -14.38370 -14.37746
 Alpha  occ. eigenvalues --  -10.34222 -10.32934 -10.32400 -10.31197 -10.27567
 Alpha  occ. eigenvalues --   -1.13479  -1.07520  -1.02968  -0.98011  -0.94856
 Alpha  occ. eigenvalues --   -0.85703  -0.75313  -0.73708  -0.71275  -0.66597
 Alpha  occ. eigenvalues --   -0.63250  -0.59427  -0.57956  -0.55306  -0.53746
 Alpha  occ. eigenvalues --   -0.51978  -0.49781  -0.48475  -0.43551  -0.39373
 Alpha  occ. eigenvalues --   -0.36740  -0.35879  -0.33393  -0.32415  -0.28486
 Alpha virt. eigenvalues --    0.01085   0.02037   0.03293   0.04101   0.04778
 Alpha virt. eigenvalues --    0.06060   0.06169   0.06446   0.08139   0.08480
 Alpha virt. eigenvalues --    0.09708   0.09893   0.10455   0.11658   0.11923

 Mulliken charges:
               1
     1  C    0.044737
     2  N   -0.206922
     3  C   -0.210864
     4  C    0.337067
     5  C   -0.124574
     6  N   -0.169480
     7  H    0.139793
     8  N   -0.439174
     9  H    0.289684
    10  H    0.276156
    11  N   -0.244537
    12  N   -0.289425
    13  C    0.146316
    14  H    0.312798
    15  H    0.138425
 Sum of Mulliken charges =  -0.00000

 Dipole moment (field-independent basis, Debye):
    X=             -1.6902    Y=              1.8309    Z=              0.0000  Tot=              2.4918
 Quadrupole moment (field-independent basis, Debye-Ang):
   XX=            -41.6451   YY=            -60.8693   ZZ=            -60.0010
   XY=              1.3857   XZ=              0.0000   YZ=              0.0000

  Exact polarizability: 220.176 -21.783 189.925  -0.000   0.000  69.055
 Approx polarizability: 143.807   1.267 129.801  -0.000  -0.000  63.987

 ******    3 imaginary frequencies (negative Signs) ******

                      1                      2                      3
                     A'                     A"                     A"
 Frequencies --  -1081.8831              -182.3621               -52.7238
 Red. masses --     10.0539                 3.7327                 6.8097
 Frc consts  --      6.9334                 0.0731                 0.0112
 IR Inten    --   6920.6529                39.1445                 2.2624

                      4                      5                      6
                     A"                     A"                     A"
 Frequencies --    158.1714               175.1375               244.5390
 Red. masses --      3.0867                 1.8208                 5.7604
 Frc consts  --      0.0455                 0.0329                 0.2030
 IR Inten    --     54.2760                39.6209                25.3307

                      7                      8                      9
                     A'                     A"                     A"
 Frequencies --    249.7359               375.0473               468.7906
 Red. masses --      3.3201                 1.2315                 1.0625
 Frc consts  --      0.1220                 0.1021                 0.1376
 IR Inten    --     16.2515                20.2817                14.0976

                     10                     11                     12
                     A'                     A'                     A"
 Frequencies --    473.4308               515.9174               534.7252
 Red. masses --      7.3090                 4.6195                 1.5444
 Frc consts  --      0.9652                 0.7244                 0.2602
 IR Inten    --    127.4796                26.3054                39.1319

                     13                     14                     15
                     A"                     A'                     A"
 Frequencies --    564.8466               611.5003               649.3857
 Red. masses --      2.6266                 6.9067                 6.9404
 Frc consts  --      0.4937                 1.5216                 1.7244
 IR Inten    --     90.0097                48.3750                18.6665

                     16                     17                     18
                     A'                     A"                     A'
 Frequencies --    713.0166               792.5873               872.9456
 Red. masses --      6.8348                 1.3361                 8.9809
 Frc consts  --      2.0473                 0.4945                 4.0322
 IR Inten    --     75.2630                22.6525                10.5527

                     19                     20                     21
                     A'                     A'                     A'
 Frequencies --    912.8552              1001.6660              1055.8662
 Red. masses --      7.8973                 1.9893                 1.9492
 Frc consts  --      3.8773                 1.1760                 1.2803
 IR Inten    --    104.6796                26.9696               295.1823

                     22                     23                     24
                     A'                     A'                     A'
 Frequencies --   1152.4704              1241.5459              1281.7378
 Red. masses --      5.0083                 3.1778                 1.7180
 Frc consts  --      3.9193                 2.8861                 1.6630
 IR Inten    --     18.3081                27.7300                72.1485

                     25                     26                     27
                     A'                     A'                     A'
 Frequencies --   1294.4778              1386.1685              1429.8326
 Red. masses --      2.4794                 2.6684                 3.6113
 Frc consts  --      2.4479                 3.0209                 4.3499
 IR Inten    --     60.9922                39.0849                 6.1619

                     28                     29                     30
                     A'                     A'                     A'
 Frequencies --   1434.7824              1482.1699              1509.7678
 Red. masses --      2.5274                 5.6267                 2.6127
 Frc consts  --      3.0655                 7.2828                 3.5088
 IR Inten    --    112.8109                 2.4959                10.5294

                     31                     32                     33
                     A'                     A'                     A'
 Frequencies --   1535.9519              1603.2996              1646.6086
 Red. masses --      4.0638                 1.8877                 3.6117
 Frc consts  --      5.6486                 2.8590                 5.7695
 IR Inten    --    130.3071                36.8132               117.6156

                     34                     35                     36
                     A"                     A'                     A'
 Frequencies --   2171.6887              3178.8259              3257.2582
 Red. masses --      6.3900                 1.0833                 1.0956
 Frc consts  --     17.7561                 6.4495                 6.8486
 IR Inten    --    944.4089                93.4080                40.8452

                     37                     38                     39
                     A'                     A'                     A'
 Frequencies --   3630.6089              3675.9230              3768.5619
 Red. masses --      1.0445                 1.0801                 1.1071
 Frc consts  --      8.1116                 8.5989                 9.2641
 IR Inten    --    445.7048               294.3150                67.8617

 - Thermochemistry -
 -------------------
 Temperature   298.150 Kelvin.  Pressure   1.00000 Atm.
 Atom     1 has atomic number  6 and mass  12.00000

 Molecular mass:   135.05450 amu.
 Principal axes and moments of inertia in atomic units:
                           1         2         3
     Eigenvalues --   753.081331140.598571893.67989
           X            0.93309   0.35965   0.00000
           Y           -0.35965   0.93309   0.00000
           Z           -0.00000   0.00000   1.00000
 This molecule is an asymmetric top.
 Rotational symmetry number  1.
 Warning -- assumption of classical behavior for rotation
           may cause significant error
 Rotational temperatures (Kelvin)      0.11501     0.07594     0.04574
 Rotational constants (GHZ):           2.39648     1.58228     0.95303
    3 imaginary frequencies ignored.
 Zero-point vibrational energy     281432.5 (Joules/Mol)
                                   67.26399 (Kcal/Mol)
 Warning -- explicit consideration of  11 degrees of freedom as
           vibrations may cause significant error
 Vibrational temperatures:    227.57   251.98   351.84   359.31   539.61
          (Kelvin)            674.49   681.16   742.29   769.35   812.69
                              879.81   934.32  1025.87  1140.36  1255.97
                             1313.40  1441.17  1519.16  1658.15  1786.31
                             1844.13  1862.46  1994.39  2057.21  2064.33
                             2132.51  2172.22  2209.89  2306.79  2369.10
                             3124.58  4573.62  4686.47  5223.64  5288.83
                             5422.12

 Zero-point correction=                           0.107192 (Hartree/Particle)
 Thermal correction to Energy=                    0.114409
 Thermal correction to Enthalpy=                  0.115353
 Thermal correction to Gibbs Free Energy=         0.075353
 Sum of electronic and zero-point Energies=           -466.927357
 Sum of electronic and thermal Energies=              -466.920140
 Sum of electronic and thermal Enthalpies=            -466.919196
 Sum of electronic and thermal Free Energies=         -466.959196

                     E (Thermal)             CV                S
                      KCal/Mol        Cal/Mol-Kelvin    Cal/Mol-Kelvin
 Total                   71.792             27.377             84.186
 Electronic               0.000              0.000              0.000
 Translational            0.889              2.981             40.614
 Rotational               0.889              2.981             28.877
 Vibrational             70.015             21.415             14.696
 Vibration     1          0.621              1.893              2.572
 Vibration     2          0.627              1.873              2.380
 Vibration     3          0.660              1.772              1.770
 Vibration     4          0.663              1.763              1.732
 Vibration     5          0.746              1.523              1.059
 Vibration     6          0.826              1.319              0.741
 Vibration     7          0.830              1.309              0.728
 Vibration     8          0.871              1.215              0.619
 Vibration     9          0.890              1.173              0.577
 Vibration    10          0.921              1.107              0.514
 Vibration    11          0.971              1.007              0.430

 Normal termination of Gaussian 16 at Tue Nov 22 14:22:12 2022.
