 Gaussian 16, Revision B.01,
 Gaussian 16:  ES64L-G16RevB.01 20-Dec-2017

 ----------------------------------------------------------------
 #p freq td=(nstates=10,root=5) cam-b3lyp/6-311+G(d,p) symm=loose
 ----------------------------------------------------------------

 ------------------------------
 Cytosine TDDFT excited state 5
 ------------------------------
 Symbolic Z-matrix:
 Charge =  0 Multiplicity = 1

                         Standard orientation:
 ---------------------------------------------------------------------
 Center     Atomic      Atomic             Coordinates (Angstroms)
 Number     Number       Type             X           Y           Z
 ---------------------------------------------------------------------
      1          6           0       -0.066548   -1.714527   -0.000000
      2          6           0       -1.219007    0.431513   -0.000000
      3          6           0        1.101517    0.340693    0.000000
      4          6           0        1.131900   -1.097127    0.000000
      5          7           0       -1.203699   -0.985159   -0.000000
      6          7           0       -0.000000    1.047554    0.000000
      7          7           0        2.271670    1.018994    0.000000
      8          8           0       -2.290717    0.994921   -0.000000
      9          1           0       -2.112424   -1.423553   -0.000000
     10          1           0        2.056960   -1.653675    0.000000
     11          1           0       -0.176634   -2.791533   -0.000000
     12          1           0        3.159550    0.551294    0.000000
     13          1           0        2.235310    2.025069    0.000000
 ---------------------------------------------------------------------

 SCF Done:  E(RCAM-B3LYP) =  -394.873838903     A.U. after   14 cycles

 Excitation energies and oscillator strengths:

 Excited State   1:      Singlet-A'     5.0136 eV  247.30 nm  f=0.0671  <S**2>=0.000
      29 -> 30         0.69050

 Excited State   2:      Singlet-A"     5.2861 eV  234.55 nm  f=0.0021  <S**2>=0.000
      26 -> 30         0.50661
      26 -> 34         0.11487
      27 -> 30        -0.45413
      27 -> 34        -0.10823

 Excited State   3:      Singlet-A"     5.8089 eV  213.44 nm  f=0.0038  <S**2>=0.000
      28 -> 31        -0.16526
      29 -> 31         0.64632
      29 -> 32        -0.14937

 Excited State   4:      Singlet-A"     5.9122 eV  209.71 nm  f=0.0004  <S**2>=0.000
      26 -> 30         0.36317
      26 -> 34         0.17939
      27 -> 30         0.35048
      27 -> 34         0.40119
      27 -> 41        -0.12690

 Excited State   5:      Singlet-A'     5.9387 eV  208.77 nm  f=0.1340  <S**2>=0.000
      28 -> 30         0.67460
      29 -> 34        -0.15740
 This state for optimization and/or second-order correction.
 Total Energy, E(TD-HF/TD-DFT) =  -394.655595294
 Copying the excited state density for this state as the 1-particle RhoCI density.

 Excited State   6:      Singlet-A"     6.1334 eV  202.15 nm  f=0.0000  <S**2>=0.000
      26 -> 30        -0.24289
      27 -> 30        -0.40331
      27 -> 34         0.47874
      27 -> 41        -0.15241

 Excited State   7:      Singlet-A"     6.3434 eV  195.45 nm  f=0.0042  <S**2>=0.000
      28 -> 31         0.46409
      28 -> 32         0.44806
      29 -> 32        -0.15142
      29 -> 33         0.17353

 Excited State   8:      Singlet-A"     6.4900 eV  191.04 nm  f=0.0091  <S**2>=0.000
      28 -> 31         0.14663
      28 -> 33         0.11380
      29 -> 31         0.18181
      29 -> 32         0.62013
      29 -> 33        -0.12893
      29 -> 37        -0.10427

 Excited State   9:      Singlet-A'     6.6279 eV  187.06 nm  f=0.3906  <S**2>=0.000
      28 -> 30         0.15163
      28 -> 34        -0.18649
      29 -> 34         0.63144

 Excited State  10:      Singlet-A"     6.7536 eV  183.58 nm  f=0.0004  <S**2>=0.000
      26 -> 30        -0.19051
      26 -> 34         0.61738
      26 -> 41        -0.14981
      27 -> 34        -0.11615
      29 -> 33        -0.13428

 The electronic state is 1-A'.
 Alpha  occ. eigenvalues --  -19.14767 -14.44577 -14.42100 -14.36827 -10.36854
 Alpha  occ. eigenvalues --  -10.35326 -10.32919 -10.26531  -1.13762  -1.06870
 Alpha  occ. eigenvalues --   -1.04118  -0.96568  -0.87844  -0.75478  -0.73983
 Alpha  occ. eigenvalues --   -0.65173  -0.65038  -0.61099  -0.57838  -0.53912
 Alpha  occ. eigenvalues --   -0.52563  -0.51251  -0.48342  -0.46145  -0.42525
 Alpha  occ. eigenvalues --   -0.34384  -0.32794  -0.32490  -0.29914
 Alpha virt. eigenvalues --   -0.00047   0.01107   0.02383   0.04271   0.04809
 Alpha virt. eigenvalues --    0.06760   0.07056   0.07347   0.09230   0.10501
 Alpha virt. eigenvalues --    0.10984   0.11570   0.11646   0.14492   0.14987

 Mulliken charges:
               1
     1  C   -0.146112
     2  C    0.251743
     3  C    0.030804
     4  C    0.129629
     5  N   -0.325927
     6  N   -0.306967
     7  N   -0.382266
     8  O   -0.380328
     9  H    0.312937
    10  H    0.130211
    11  H    0.149499
    12  H    0.252952
    13  H    0.283824
 Sum of Mulliken charges =  -0.00000

 Dipole moment (field-independent basis, Debye):
    X=              4.9158    Y=             -4.8558    Z=              0.0000  Tot=              6.9097
 Quadrupole moment (field-independent basis, Debye-Ang):
   XX=            -42.7189   YY=            -42.5570   ZZ=            -48.9876
   XY=             10.8310   XZ=             -0.0000   YZ=             -0.0000

  Exact polarizability: 110.298  26.148 117.033  -0.000  -0.000  62.209
 Approx polarizability: 119.144  -1.239  86.646   0.000  -0.000  50.485

 ******    2 imaginary frequencies (negative Signs) ******

                      1                      2                      3
                     A"                     A"                     A"
 Frequencies --   -370.3630              -215.9868               135.3124
 Red. masses --      7.8678                 1.3957                 3.2207
 Frc consts  --      0.6359                 0.0384                 0.0347
 IR Inten    --     41.9798                 0.4813                18.8623

                      4                      5                      6
                     A"                     A'                     A"
 Frequencies --    256.9354               296.4884               341.1927
 Red. masses --      1.7974                 2.8894                 1.8330
 Frc consts  --      0.0699                 0.1496                 0.1257
 IR Inten    --     38.8156                17.1773                98.1347

                      7                      8                      9
                     A"                     A'                     A'
 Frequencies --    463.7860               483.8493               522.8161
 Red. masses --      1.4461                 6.9405                 5.1197
 Frc consts  --      0.1833                 0.9573                 0.8245
 IR Inten    --     50.7545                30.4284                12.7757

                     10                     11                     12
                     A"                     A'                     A"
 Frequencies --    544.8052               566.2554               694.7775
 Red. masses --      1.2033                 8.7601                 1.1950
 Frc consts  --      0.2104                 1.6549                 0.3399
 IR Inten    --    151.2224                 1.5580                 4.0452

                     13                     14                     15
                     A'                     A"                     A'
 Frequencies --    756.0471               762.6118               898.4239
 Red. masses --      7.3017                10.9011                 2.5096
 Frc consts  --      2.4591                 3.7353                 1.1935
 IR Inten    --     88.0429                25.1840                 0.4463

                     16                     17                     18
                     A'                     A'                     A'
 Frequencies --    937.4470               971.8371              1078.5868
 Red. masses --      5.5629                 4.3518                 2.3015
 Frc consts  --      2.8803                 2.4216                 1.5775
 IR Inten    --    444.9224                46.0481               129.7521

                     19                     20                     21
                     A"                     A'                     A'
 Frequencies --   1087.5340              1159.3312              1239.6969
 Red. masses --      2.5724                 1.9931                 1.5657
 Frc consts  --      1.7926                 1.5783                 1.4178
 IR Inten    --     12.4125                 4.3751                 0.6303

                     22                     23                     24
                     A'                     A'                     A'
 Frequencies --   1261.3444              1425.0673              1498.7953
 Red. masses --      2.1811                 1.5724                 2.3704
 Frc consts  --      2.0446                 1.8814                 3.1373
 IR Inten    --    116.0453                39.1482                70.3096

                     25                     26                     27
                     A'                     A'                     A'
 Frequencies --   1566.3853              1588.3550              1654.5491
 Red. masses --      6.2317                 1.2401                 4.8083
 Frc consts  --      9.0086                 1.8433                 7.7554
 IR Inten    --     70.7549                74.9007               164.8422

                     28                     29                     30
                     A'                     A'                     A'
 Frequencies --   1818.5502              3208.9792              3237.0592
 Red. masses --      9.4277                 1.0886                 1.0958
 Frc consts  --     18.3699                 6.6045                 6.7654
 IR Inten    --   1695.2834                13.8761                18.2539

                     31                     32                     33
                     A'                     A'                     A'
 Frequencies --   3628.5928              3654.1344              3772.5149
 Red. masses --      1.0475                 1.0791                 1.1049
 Frc consts  --      8.1263                 8.4896                 9.2648
 IR Inten    --    104.6460                97.7121                88.3455

 - Thermochemistry -
 -------------------
 Temperature   298.150 Kelvin.  Pressure   1.00000 Atm.
 Atom     1 has atomic number  6 and mass  12.00000

 Molecular mass:   111.04326 amu.
 Principal axes and moments of inertia in atomic units:
                           1         2         3
     Eigenvalues --   462.63394 885.903841348.53778
           X            0.99949  -0.03201   0.00000
           Y            0.03201   0.99949   0.00000
           Z           -0.00000   0.00000   1.00000
 This molecule is an asymmetric top.
 Rotational symmetry number  1.
 Warning -- assumption of classical behavior for rotation
           may cause significant error
 Rotational temperatures (Kelvin)      0.18722     0.09777     0.06423
 Rotational constants (GHZ):           3.90101     2.03718     1.33829
    2 imaginary frequencies ignored.
 Zero-point vibrational energy     248297.3 (Joules/Mol)
                                   59.34447 (Kcal/Mol)
 Warning -- explicit consideration of   9 degrees of freedom as
           vibrations may cause significant error
 Vibrational temperatures:    194.68   369.67   426.58   490.90   667.28
          (Kelvin)            696.15   752.22   783.85   814.72   999.63
                             1087.78  1097.23  1292.63  1348.78  1398.26
                             1551.85  1564.72  1668.02  1783.65  1814.79
                             2050.35  2156.43  2253.68  2285.29  2380.53
                             2616.49  4617.01  4657.41  5220.74  5257.48
                             5427.81

 Zero-point correction=                           0.094571 (Hartree/Particle)
 Thermal correction to Energy=                    0.100977
 Thermal correction to Enthalpy=                  0.101921
 Thermal correction to Gibbs Free Energy=         0.064090
 Sum of electronic and zero-point Energies=           -394.561024
 Sum of electronic and thermal Energies=              -394.554619
 Sum of electronic and thermal Enthalpies=            -394.553674
 Sum of electronic and thermal Free Energies=         -394.591506

                     E (Thermal)             CV                S
                      KCal/Mol        Cal/Mol-Kelvin    Cal/Mol-Kelvin
 Total                   63.364             24.141             79.622
 Electronic               0.000              0.000              0.000
 Translational            0.889              2.981             40.030
 Rotational               0.889              2.981             27.804
 Vibrational             61.586             18.180             11.788
 Vibration     1          0.613              1.918              2.869
 Vibration     2          0.667              1.751              1.683
 Vibration     3          0.690              1.680              1.437
 Vibration     4          0.721              1.593              1.207
 Vibration     5          0.821              1.330              0.755
 Vibration     6          0.840              1.286              0.700
 Vibration     7          0.878              1.199              0.603
 Vibration     8          0.900              1.151              0.555
 Vibration     9          0.922              1.104              0.511

 Normal termination of Gaussian 16 at Tue Nov 22 14:24:58 2022.
