 Gaussian 16, Revision B.01,
 Gaussian 16:  ES64L-G16RevB.01 20-Dec-2017

 ----------------------------------------------------------------
 #p freq td=(nstates=10,root=2) cam-b3lyp/6-311+G(d,p) symm=loose
 ----------------------------------------------------------------

 -----------------------------
 Thymine TDDFT excited state 2
 -----------------------------
 Symbolic Z-matrix:
 Charge =  0 Multiplicity = 1

                         Standard orientation:
 ---------------------------------------------------------------------
 Center     Atomic      Atomic             Coordinates (Angstroms)
 Number     Number       Type             X           Y           Z
 ---------------------------------------------------------------------
      1          7           0        0.155734   -1.659062    0.000000
      2          6           0        1.356002   -0.978945    0.000000
      3          7           0        1.195950    0.391060    0.000000
      4          6           0       -0.000000    1.115359    0.000000
      5          6           0       -1.214288    0.295879    0.000000
      6          6           0       -1.073627   -1.037299    0.000000
      7          8           0        2.431070   -1.530595    0.000000
      8          8           0        0.017636    2.326209    0.000000
      9          1           0        0.230272   -2.664179    0.000000
     10          1           0        2.049840    0.933880    0.000000
     11          6           0       -2.533447    1.000264    0.000000
     12          1           0       -1.925029   -1.706110    0.000000
     13          1           0       -3.358140    0.286495    0.000000
     14          1           0       -2.628104    1.644735    0.876132
     15          1           0       -2.628104    1.644735   -0.876132
 ---------------------------------------------------------------------

 SCF Done:  E(RCAM-B3LYP) =  -454.074711543     A.U. after   15 cycles

 Excitation energies and oscillator strengths:

 Excited State   1:      Singlet-A"     5.1426 eV  241.09 nm  f=0.0000  <S**2>=0.000
      30 -> 34        -0.18938
      32 -> 34         0.62803
      32 -> 38        -0.20909

 Excited State   2:      Singlet-A'     5.3144 eV  233.30 nm  f=0.1912  <S**2>=0.000
      33 -> 34         0.69017
 This state for optimization and/or second-order correction.
 Total Energy, E(TD-HF/TD-DFT) =  -453.879410981
 Copying the excited state density for this state as the 1-particle RhoCI density.

 Excited State   3:      Singlet-A"     5.9445 eV  208.57 nm  f=0.0006  <S**2>=0.000
      33 -> 35         0.69012

 Excited State   4:      Singlet-A"     6.4658 eV  191.76 nm  f=0.0000  <S**2>=0.000
      30 -> 34         0.25974
      30 -> 38         0.38301
      30 -> 39        -0.20254
      30 -> 52         0.11665
      32 -> 34         0.16494
      32 -> 38         0.39748
      32 -> 39        -0.17721

 Excited State   5:      Singlet-A'     6.6748 eV  185.75 nm  f=0.0547  <S**2>=0.000
      31 -> 34         0.68634

 Excited State   6:      Singlet-A'     6.7315 eV  184.19 nm  f=0.2185  <S**2>=0.000
      33 -> 38         0.66365
      33 -> 39        -0.18842

 Excited State   7:      Singlet-A"     6.7793 eV  182.89 nm  f=0.0013  <S**2>=0.000
      33 -> 36         0.27388
      33 -> 37         0.59719
      33 -> 41        -0.19371

 Excited State   8:      Singlet-A"     6.9269 eV  178.99 nm  f=0.0000  <S**2>=0.000
      33 -> 36         0.61027
      33 -> 37        -0.27521
      33 -> 40        -0.12310

 Excited State   9:      Singlet-A"     7.1731 eV  172.85 nm  f=0.0007  <S**2>=0.000
      30 -> 34         0.61444
      30 -> 38        -0.20747
      32 -> 34         0.14621
      32 -> 38        -0.19627

 Excited State  10:      Singlet-A'     7.3422 eV  168.86 nm  f=0.0103  <S**2>=0.000
      32 -> 35        -0.28799
      32 -> 37         0.29123
      33 -> 38         0.13451
      33 -> 39         0.52305

 The electronic state is 1-A'.
 Alpha  occ. eigenvalues --  -19.18506 -19.18389 -14.46254 -14.44870 -10.40961
 Alpha  occ. eigenvalues --  -10.37656 -10.33047 -10.27865 -10.25540  -1.17874
 Alpha  occ. eigenvalues --   -1.14626  -1.07595  -1.02248  -0.91389  -0.80632
 Alpha  occ. eigenvalues --   -0.76868  -0.75140  -0.65566  -0.65174  -0.60221
 Alpha  occ. eigenvalues --   -0.57170  -0.55457  -0.52377  -0.51058  -0.50867
 Alpha  occ. eigenvalues --   -0.48264  -0.47949  -0.46529  -0.43743  -0.37633
 Alpha  occ. eigenvalues --   -0.36263  -0.34676  -0.31071
 Alpha virt. eigenvalues --   -0.00845   0.00927   0.03499   0.03649   0.04544
 Alpha virt. eigenvalues --    0.05658   0.06162   0.07298   0.07681   0.08723
 Alpha virt. eigenvalues --    0.09828   0.10048   0.10770   0.12155   0.13774

 Mulliken charges:
               1
     1  N   -0.393585
     2  C    0.416849
     3  N   -0.449668
     4  C    0.108923
     5  C    0.592095
     6  C   -0.297182
     7  O   -0.372486
     8  O   -0.335398
     9  H    0.334676
    10  H    0.347380
    11  C   -0.566122
    12  H    0.144178
    13  H    0.129683
    14  H    0.170329
    15  H    0.170329
 Sum of Mulliken charges =  -0.00000

 Dipole moment (field-independent basis, Debye):
    X=             -3.5246    Y=             -2.8845    Z=             -0.0000  Tot=              4.5544
 Quadrupole moment (field-independent basis, Debye-Ang):
   XX=            -55.0426   YY=            -56.7035   ZZ=            -52.9440
   XY=              8.5553   XZ=              0.0000   YZ=             -0.0000

  Exact polarizability: 128.329 -16.335 120.859  -0.000  -0.000  63.265
 Approx polarizability:  94.946 -11.033 120.912   0.000  -0.000  57.485

 ******    3 imaginary frequencies (negative Signs) ******

                      1                      2                      3
                     A"                     A"                     A"
 Frequencies --   -377.3936              -208.7842              -154.2808
 Red. masses --      6.7044                 1.0391                11.4767
 Frc consts  --      0.5626                 0.0267                 0.1609
 IR Inten    --     28.6131                 6.4259                 0.8098

                      4                      5                      6
                     A"                     A"                     A'
 Frequencies --    112.2511               159.6708               270.3674
 Red. masses --      6.0523                 3.3220                 3.2649
 Frc consts  --      0.0449                 0.0499                 0.1406
 IR Inten    --      0.0001                 3.1711                 9.7141

                      7                      8                      9
                     A'                     A"                     A"
 Frequencies --    363.6775               377.2653               437.0843
 Red. masses --      8.7736                 1.1876                 2.5538
 Frc consts  --      0.6837                 0.0996                 0.2874
 IR Inten    --     13.1340                23.3838                62.0045

                     10                     11                     12
                     A'                     A'                     A"
 Frequencies --    439.2452               502.3423               502.8693
 Red. masses --      6.5019                 8.6627                 1.4911
 Frc consts  --      0.7391                 1.2880                 0.2222
 IR Inten    --     33.6386                 8.8810                29.1743

                     13                     14                     15
                     A"                     A'                     A"
 Frequencies --    534.3727               581.8913               695.4014
 Red. masses --      1.0879                 4.7061                 8.9591
 Frc consts  --      0.1830                 0.9388                 2.5526
 IR Inten    --    105.1294                 0.6867                19.1556

                     16                     17                     18
                     A'                     A'                     A'
 Frequencies --    737.8466               785.9926               944.3205
 Red. masses --      5.5173                 5.4447                 2.1036
 Frc consts  --      1.7697                 1.9818                 1.1052
 IR Inten    --     11.3394                14.8908                14.1546

                     19                     20                     21
                     A"                     A'                     A'
 Frequencies --    982.1422              1009.4469              1132.9075
 Red. masses --      1.4417                 2.3006                 1.9959
 Frc consts  --      0.8194                 1.3812                 1.5093
 IR Inten    --      8.6797                 8.7920                37.3674

                     22                     23                     24
                     A'                     A'                     A'
 Frequencies --   1180.7866              1278.1738              1362.7204
 Red. masses --      3.8654                 3.1418                 2.2041
 Frc consts  --      3.1753                 3.0242                 2.4115
 IR Inten    --     18.0602                 2.7015                55.3138

                     25                     26                     27
                     A'                     A'                     A'
 Frequencies --   1377.6070              1416.4667              1438.9848
 Red. masses --      1.3207                 1.5390                 1.9273
 Frc consts  --      1.4767                 1.8193                 2.3513
 IR Inten    --     43.2143                25.4674                23.9523

                     28                     29                     30
                     A"                     A'                     A'
 Frequencies --   1450.8752              1467.6165              1488.1730
 Red. masses --      1.0437                 1.2311                 2.4499
 Frc consts  --      1.2945                 1.5623                 3.1968
 IR Inten    --      6.5022                 7.8425                59.6538

                     31                     32                     33
                     A'                     A'                     A'
 Frequencies --   1678.1554              1760.3552              1811.7118
 Red. masses --      7.1721                 6.9121                10.0654
 Frc consts  --     11.9003                12.6200                19.4652
 IR Inten    --    264.5250               294.6006               171.5271

                     34                     35                     36
                     A'                     A"                     A'
 Frequencies --   3053.4541              3113.9616              3137.0916
 Red. masses --      1.0340                 1.0988                 1.1029
 Frc consts  --      5.6803                 6.2776                 6.3948
 IR Inten    --      8.4807                 3.1169                19.5082

                     37                     38                     39
                     A'                     A'                     A'
 Frequencies --   3213.5838              3621.5396              3670.6036
 Red. masses --      1.0932                 1.0776                 1.0788
 Frc consts  --      6.6516                 8.3272                 8.5636
 IR Inten    --      0.1218               107.7717                90.1338

 - Thermochemistry -
 -------------------
 Temperature   298.150 Kelvin.  Pressure   1.00000 Atm.
 Atom     1 has atomic number  7 and mass  14.00307

 Molecular mass:   126.04293 amu.
 Principal axes and moments of inertia in atomic units:
                           1         2         3
     Eigenvalues --   559.665211279.418161828.03287
           X            0.78157   0.62381   0.00000
           Y           -0.62381   0.78157   0.00000
           Z            0.00000  -0.00000   1.00000
 This molecule is an asymmetric top.
 Rotational symmetry number  1.
 Warning -- assumption of classical behavior for rotation
           may cause significant error
 Rotational temperatures (Kelvin)      0.15476     0.06770     0.04738
 Rotational constants (GHZ):           3.22468     1.41060     0.98726
    3 imaginary frequencies ignored.
 Zero-point vibrational energy     287647.8 (Joules/Mol)
                                   68.74947 (Kcal/Mol)
 Warning -- explicit consideration of  11 degrees of freedom as
           vibrations may cause significant error
 Vibrational temperatures:    161.50   229.73   389.00   523.25   542.80
          (Kelvin)            628.87   631.98   722.76   723.52   768.84
                              837.21  1000.53  1061.60  1130.87  1358.67
                             1413.08  1452.37  1630.00  1698.89  1839.01
                             1960.65  1982.07  2037.98  2070.38  2087.49
                             2111.57  2141.15  2414.49  2532.76  2606.65
                             4393.24  4480.30  4513.58  4623.63  5210.59
                             5281.18

 Zero-point correction=                           0.109559 (Hartree/Particle)
 Thermal correction to Energy=                    0.116750
 Thermal correction to Enthalpy=                  0.117694
 Thermal correction to Gibbs Free Energy=         0.077789
 Sum of electronic and zero-point Energies=           -453.769852
 Sum of electronic and thermal Energies=              -453.762661
 Sum of electronic and thermal Enthalpies=            -453.761717
 Sum of electronic and thermal Free Energies=         -453.801622

                     E (Thermal)             CV                S
                      KCal/Mol        Cal/Mol-Kelvin    Cal/Mol-Kelvin
 Total                   73.262             26.971             83.987
 Electronic               0.000              0.000              0.000
 Translational            0.889              2.981             40.408
 Rotational               0.889              2.981             28.661
 Vibrational             71.484             21.010             14.918
 Vibration     1          0.607              1.939              3.230
 Vibration     2          0.622              1.892              2.554
 Vibration     3          0.674              1.728              1.594
 Vibration     4          0.737              1.547              1.106
 Vibration     5          0.748              1.519              1.050
 Vibration     6          0.797              1.389              0.836
 Vibration     7          0.799              1.385              0.829
 Vibration     8          0.858              1.245              0.652
 Vibration     9          0.858              1.244              0.651
 Vibration    10          0.889              1.174              0.578
 Vibration    11          0.939              1.070              0.482

 Normal termination of Gaussian 16 at Tue Nov 22 14:25:00 2022.
