 Gaussian 16, Revision B.01,
 Gaussian 16:  ES64L-G16RevB.01 20-Dec-2017

 ----------------------------------------
 #p opt cam-b3lyp/6-311+G(d,p) symm=loose
 ----------------------------------------

 -------
 Adenine
 -------
 Symbolic Z-matrix:
 Charge =  0 Multiplicity = 1

 SCF Done:  E(RCAM-B3LYP) =  -467.232522580     A.U. after   14 cycles

 The electronic state is 1-A'.
 Alpha  occ. eigenvalues --  -14.45724 -14.41254 -14.39240 -14.38370 -14.37746
 Alpha  occ. eigenvalues --  -10.34222 -10.32934 -10.32400 -10.31197 -10.27567
 Alpha  occ. eigenvalues --   -1.13479  -1.07520  -1.02968  -0.98011  -0.94856
 Alpha  occ. eigenvalues --   -0.85703  -0.75313  -0.73708  -0.71275  -0.66597
 Alpha  occ. eigenvalues --   -0.63250  -0.59427  -0.57956  -0.55306  -0.53746
 Alpha  occ. eigenvalues --   -0.51978  -0.49781  -0.48475  -0.43551  -0.39373
 Alpha  occ. eigenvalues --   -0.36740  -0.35879  -0.33393  -0.32415  -0.28486
 Alpha virt. eigenvalues --    0.01085   0.02037   0.03293   0.04101   0.04778
 Alpha virt. eigenvalues --    0.06060   0.06169   0.06446   0.08139   0.08480
 Alpha virt. eigenvalues --    0.09708   0.09893   0.10455   0.11658   0.11923

 Mulliken charges:
               1
     1  C    0.044737
     2  N   -0.206922
     3  C   -0.210864
     4  C    0.337067
     5  C   -0.124574
     6  N   -0.169480
     7  H    0.139793
     8  N   -0.439174
     9  H    0.289684
    10  H    0.276156
    11  N   -0.244537
    12  N   -0.289425
    13  C    0.146316
    14  H    0.312798
    15  H    0.138425
 Sum of Mulliken charges =  -0.00000

 Dipole moment (field-independent basis, Debye):
    X=             -1.6902    Y=              1.8309    Z=              0.0000  Tot=              2.4918
 Quadrupole moment (field-independent basis, Debye-Ang):
   XX=            -41.6451   YY=            -60.8693   ZZ=            -60.0010
   XY=              1.3857   XZ=              0.0000   YZ=              0.0000

 Optimization completed.
    -- Stationary point found.

                         Standard orientation:
 ---------------------------------------------------------------------
 Center     Atomic      Atomic             Coordinates (Angstroms)
 Number     Number       Type             X           Y           Z
 ---------------------------------------------------------------------
      1          6           0        0.664555   -2.021821    0.000000
      2          7           0        1.659008   -1.127792    0.000000
      3          6           0        1.353886    0.171290    0.000000
      4          6           0        0.000000    0.543282    0.000000
      5          6           0       -0.918721   -0.495494    0.000000
      6          7           0       -0.641588   -1.798863    0.000000
      7          1           0        0.973540   -3.061995    0.000000
      8          7           0        2.348282    1.080832    0.000000
      9          1           0        3.301658    0.761362    0.000000
     10          1           0        2.137417    2.063682    0.000000
     11          7           0       -0.633203    1.770424    0.000000
     12          7           0       -2.142670    0.123487    0.000000
     13          6           0       -1.899333    1.476588    0.000000
     14          1           0       -3.038351   -0.337796    0.000000
     15          1           0       -2.705393    2.195054    0.000000
 ---------------------------------------------------------------------

 Normal termination of Gaussian 16 at Tue Nov 22 10:47:33 2022.
