 Gaussian 16, Revision B.01,
 Gaussian 16:  ES64L-G16RevB.01 20-Dec-2017

 ----------------------------------------
 #p opt cam-b3lyp/6-311+G(d,p) symm=loose
 ----------------------------------------

 --------
 Cytosine
 --------
 Symbolic Z-matrix:
 Charge =  0 Multiplicity = 1

 SCF Done:  E(RCAM-B3LYP) =  -394.873838903     A.U. after   14 cycles

 The electronic state is 1-A'.
 Alpha  occ. eigenvalues --  -19.14767 -14.44577 -14.42100 -14.36827 -10.36854
 Alpha  occ. eigenvalues --  -10.35326 -10.32919 -10.26531  -1.13762  -1.06870
 Alpha  occ. eigenvalues --   -1.04118  -0.96568  -0.87844  -0.75478  -0.73983
 Alpha  occ. eigenvalues --   -0.65173  -0.65038  -0.61099  -0.57838  -0.53912
 Alpha  occ. eigenvalues --   -0.52563  -0.51251  -0.48342  -0.46145  -0.42525
 Alpha  occ. eigenvalues --   -0.34384  -0.32794  -0.32490  -0.29914
 Alpha virt. eigenvalues --   -0.00047   0.01107   0.02383   0.04271   0.04809
 Alpha virt. eigenvalues --    0.06760   0.07056   0.07347   0.09230   0.10501
 Alpha virt. eigenvalues --    0.10984   0.11570   0.11646   0.14492   0.14987

 Mulliken charges:
               1
     1  C   -0.146112
     2  C    0.251743
     3  C    0.030804
     4  C    0.129629
     5  N   -0.325927
     6  N   -0.306967
     7  N   -0.382266
     8  O   -0.380328
     9  H    0.312937
    10  H    0.130211
    11  H    0.149499
    12  H    0.252952
    13  H    0.283824
 Sum of Mulliken charges =  -0.00000

 Dipole moment (field-independent basis, Debye):
    X=              4.9158    Y=             -4.8558    Z=              0.0000  Tot=              6.9097
 Quadrupole moment (field-independent basis, Debye-Ang):
   XX=            -42.7189   YY=            -42.5570   ZZ=            -48.9876
   XY=             10.8310   XZ=             -0.0000   YZ=              0.0000

 Optimization completed.
    -- Stationary point found.

                         Standard orientation:
 ---------------------------------------------------------------------
 Center     Atomic      Atomic             Coordinates (Angstroms)
 Number     Number       Type             X           Y           Z
 ---------------------------------------------------------------------
      1          6           0       -0.066548   -1.714527   -0.000000
      2          6           0       -1.219007    0.431513   -0.000000
      3          6           0        1.101517    0.340693    0.000000
      4          6           0        1.131900   -1.097127    0.000000
      5          7           0       -1.203699   -0.985159   -0.000000
      6          7           0       -0.000000    1.047554    0.000000
      7          7           0        2.271670    1.018994    0.000000
      8          8           0       -2.290717    0.994921   -0.000000
      9          1           0       -2.112424   -1.423553   -0.000000
     10          1           0        2.056960   -1.653675    0.000000
     11          1           0       -0.176634   -2.791533   -0.000000
     12          1           0        3.159550    0.551294    0.000000
     13          1           0        2.235310    2.025069    0.000000
 ---------------------------------------------------------------------

 Normal termination of Gaussian 16 at Tue Nov 22 10:45:01 2022.
