 Gaussian 16, Revision B.01,
 Gaussian 16:  ES64L-G16RevB.01 20-Dec-2017

 -----------------------------------------
 #p freq cam-b3lyp/6-311+G(d,p) symm=loose
 -----------------------------------------

 -------
 Adenine
 -------
 Symbolic Z-matrix:
 Charge =  0 Multiplicity = 1

                         Standard orientation:
 ---------------------------------------------------------------------
 Center     Atomic      Atomic             Coordinates (Angstroms)
 Number     Number       Type             X           Y           Z
 ---------------------------------------------------------------------
      1          6           0        0.664555   -2.021821    0.000000
      2          7           0        1.659008   -1.127792    0.000000
      3          6           0        1.353886    0.171290    0.000000
      4          6           0        0.000000    0.543282    0.000000
      5          6           0       -0.918721   -0.495494    0.000000
      6          7           0       -0.641588   -1.798863    0.000000
      7          1           0        0.973540   -3.061995    0.000000
      8          7           0        2.348282    1.080832    0.000000
      9          1           0        3.301658    0.761362    0.000000
     10          1           0        2.137417    2.063682    0.000000
     11          7           0       -0.633203    1.770424    0.000000
     12          7           0       -2.142670    0.123487    0.000000
     13          6           0       -1.899333    1.476588    0.000000
     14          1           0       -3.038351   -0.337796    0.000000
     15          1           0       -2.705393    2.195054    0.000000
 ---------------------------------------------------------------------

 SCF Done:  E(RCAM-B3LYP) =  -467.232522580     A.U. after   14 cycles

 The electronic state is 1-A'.
 Alpha  occ. eigenvalues --  -14.45724 -14.41254 -14.39240 -14.38370 -14.37746
 Alpha  occ. eigenvalues --  -10.34222 -10.32934 -10.32400 -10.31197 -10.27567
 Alpha  occ. eigenvalues --   -1.13479  -1.07520  -1.02968  -0.98011  -0.94856
 Alpha  occ. eigenvalues --   -0.85703  -0.75313  -0.73708  -0.71275  -0.66597
 Alpha  occ. eigenvalues --   -0.63250  -0.59427  -0.57956  -0.55306  -0.53746
 Alpha  occ. eigenvalues --   -0.51978  -0.49781  -0.48475  -0.43551  -0.39373
 Alpha  occ. eigenvalues --   -0.36740  -0.35879  -0.33393  -0.32415  -0.28486
 Alpha virt. eigenvalues --    0.01085   0.02037   0.03293   0.04101   0.04778
 Alpha virt. eigenvalues --    0.06060   0.06169   0.06446   0.08139   0.08480
 Alpha virt. eigenvalues --    0.09708   0.09893   0.10455   0.11658   0.11923

 Mulliken charges:
               1
     1  C    0.044737
     2  N   -0.206922
     3  C   -0.210864
     4  C    0.337067
     5  C   -0.124574
     6  N   -0.169480
     7  H    0.139793
     8  N   -0.439174
     9  H    0.289684
    10  H    0.276156
    11  N   -0.244537
    12  N   -0.289425
    13  C    0.146316
    14  H    0.312798
    15  H    0.138425
 Sum of Mulliken charges =  -0.00000

 Dipole moment (field-independent basis, Debye):
    X=             -1.6902    Y=              1.8309    Z=              0.0000  Tot=              2.4918
 Quadrupole moment (field-independent basis, Debye-Ang):
   XX=            -41.6451   YY=            -60.8693   ZZ=            -60.0010
   XY=              1.3857   XZ=              0.0000   YZ=              0.0000

  Exact polarizability: 116.892  -3.348 103.711   0.000   0.000  49.655
 Approx polarizability: 143.807   1.267 129.801  -0.000  -0.000  63.987

                      1                      2                      3
                     A"                     A"                     A"
 Frequencies --    156.7371               176.6336               224.6311
 Red. masses --      4.3866                 1.4867                 3.1918
 Frc consts  --      0.0635                 0.0273                 0.0949
 IR Inten    --     56.3541               157.5145                17.1389

                      4                      5                      6
                     A'                     A"                     A'
 Frequencies --    278.8495               304.8675               526.7154
 Red. masses --      3.4162                 7.4896                 4.1979
 Frc consts  --      0.1565                 0.4101                 0.6862
 IR Inten    --     12.0506                 0.2428                 4.6540

                      7                      8                      9
                     A"                     A'                     A"
 Frequencies --    532.6347               538.5525               546.3016
 Red. masses --      1.4293                 8.5019                 1.1031
 Frc consts  --      0.2389                 1.4529                 0.1940
 IR Inten    --     70.0951                 2.0578                 7.4012

                     10                     11                     12
                     A"                     A'                     A"
 Frequencies --    583.8347               628.1792               677.8380
 Red. masses --      2.1637                 6.3561                 3.4287
 Frc consts  --      0.4345                 1.4778                 0.9282
 IR Inten    --     56.9318                 0.6864                 9.6459

                     13                     14                     15
                     A"                     A'                     A"
 Frequencies --    703.6263               736.8955               831.9595
 Red. masses --      9.5075                 6.6064                 8.8014
 Frc consts  --      2.7733                 2.1136                 3.5893
 IR Inten    --      0.7481                 2.3288                13.1281

                     16                     17                     18
                     A"                     A'                     A'
 Frequencies --    884.5101               914.2559               959.8669
 Red. masses --      1.4757                 8.2672                 7.3450
 Frc consts  --      0.6802                 4.0714                 3.9871
 IR Inten    --      6.6811                14.3925                13.6044

                     19                     20                     21
                     A"                     A'                     A'
 Frequencies --   1002.4858              1024.5282              1095.3997
 Red. masses --      1.4533                 1.8356                 1.6391
 Frc consts  --      0.8605                 1.1352                 1.1588
 IR Inten    --      3.0309                 4.4326                22.1883

                     22                     23                     24
                     A'                     A'                     A'
 Frequencies --   1164.0801              1264.6793              1282.9871
 Red. masses --      3.8938                 3.2504                 1.9887
 Frc consts  --      3.1087                 3.0630                 1.9287
 IR Inten    --     23.9829                17.1202                28.9579

                     25                     26                     27
                     A'                     A'                     A'
 Frequencies --   1345.4204              1380.8504              1389.2153
 Red. masses --      4.0190                 2.2503                 4.3843
 Frc consts  --      4.2863                 2.5280                 4.9853
 IR Inten    --     63.9321                12.0173                64.2457

                     28                     29                     30
                     A'                     A'                     A'
 Frequencies --   1437.0278              1466.0268              1532.0562
 Red. masses --      2.0504                 5.8193                 2.7141
 Frc consts  --      2.4947                 7.3689                 3.7535
 IR Inten    --     10.0954                36.6671                58.8334

                     31                     32                     33
                     A'                     A'                     A'
 Frequencies --   1556.3849              1630.8786              1678.2166
 Red. masses --      5.1586                 1.7708                 7.3203
 Frc consts  --      7.3623                 2.7750                12.1472
 IR Inten    --     39.7320                23.2044               156.3370

                     34                     35                     36
                     A'                     A'                     A'
 Frequencies --   1688.2355              3190.5360              3258.3230
 Red. masses --      5.2989                 1.0917                 1.0985
 Frc consts  --      8.8982                 6.5475                 6.8712
 IR Inten    --    709.4741                15.6968                 0.1177

                     37                     38                     39
                     A'                     A'                     A'
 Frequencies --   3633.2752              3678.9043              3764.9736
 Red. masses --      1.0441                 1.0819                 1.1072
 Frc consts  --      8.1209                 8.6270                 9.2470
 IR Inten    --    116.6090               109.0921                74.8593

 - Thermochemistry -
 -------------------
 Temperature   298.150 Kelvin.  Pressure   1.00000 Atm.
 Atom     1 has atomic number  6 and mass  12.00000

 Molecular mass:   135.05450 amu.
 Principal axes and moments of inertia in atomic units:
                           1         2         3
     Eigenvalues --   753.081331140.598571893.67989
           X            0.93309   0.35965   0.00000
           Y           -0.35965   0.93309   0.00000
           Z           -0.00000   0.00000   1.00000
 This molecule is an asymmetric top.
 Rotational symmetry number  1.
 Warning -- assumption of classical behavior for rotation
           may cause significant error
 Rotational temperatures (Kelvin)      0.11501     0.07594     0.04574
 Rotational constants (GHZ):           2.39648     1.58228     0.95303
 Zero-point vibrational energy     297100.8 (Joules/Mol)
                                   71.00879 (Kcal/Mol)
 Warning -- explicit consideration of  10 degrees of freedom as
           vibrations may cause significant error
 Vibrational temperatures:    225.51   254.14   323.19   401.20   438.64
          (Kelvin)            757.83   766.34   774.86   786.01   840.01
                              903.81   975.26  1012.36  1060.23  1197.00
                             1272.61  1315.41  1381.03  1442.35  1474.07
                             1576.04  1674.85  1819.59  1845.93  1935.76
                             1986.74  1998.77  2067.56  2109.29  2204.29
                             2239.29  2346.47  2414.58  2428.99  4590.47
                             4688.00  5227.47  5293.12  5416.96

 Zero-point correction=                           0.113160 (Hartree/Particle)
 Thermal correction to Energy=                    0.120461
 Thermal correction to Enthalpy=                  0.121406
 Thermal correction to Gibbs Free Energy=         0.081293
 Sum of electronic and zero-point Energies=           -467.119363
 Sum of electronic and thermal Energies=              -467.112061
 Sum of electronic and thermal Enthalpies=            -467.111117
 Sum of electronic and thermal Free Energies=         -467.151229

                     E (Thermal)             CV                S
                      KCal/Mol        Cal/Mol-Kelvin    Cal/Mol-Kelvin
 Total                   75.591             28.452             84.424
 Electronic               0.000              0.000              0.000
 Translational            0.889              2.981             40.614
 Rotational               0.889              2.981             28.877
 Vibrational             73.813             22.490             14.933
 Vibration     1          0.620              1.895              2.589
 Vibration     2          0.628              1.871              2.364
 Vibration     3          0.649              1.804              1.921
 Vibration     4          0.679              1.713              1.541
 Vibration     5          0.696              1.664              1.390
 Vibration     6          0.882              1.191              0.595
 Vibration     7          0.888              1.178              0.581
 Vibration     8          0.894              1.165              0.568
 Vibration     9          0.901              1.148              0.552
 Vibration    10          0.941              1.066              0.478

 Optimization completed.
    -- Stationary point found.
 Normal termination of Gaussian 16 at Tue Nov 22 13:15:52 2022.
