 Gaussian 16, Revision B.01,
 Gaussian 16:  ES64L-G16RevB.01 20-Dec-2017

 -----------------------------------------
 #p freq cam-b3lyp/6-311+G(d,p) symm=loose
 -----------------------------------------

 --------
 Cytosine
 --------
 Symbolic Z-matrix:
 Charge =  0 Multiplicity = 1

                         Standard orientation:
 ---------------------------------------------------------------------
 Center     Atomic      Atomic             Coordinates (Angstroms)
 Number     Number       Type             X           Y           Z
 ---------------------------------------------------------------------
      1          6           0       -0.066548   -1.714527   -0.000000
      2          6           0       -1.219007    0.431513   -0.000000
      3          6           0        1.101517    0.340693    0.000000
      4          6           0        1.131900   -1.097127    0.000000
      5          7           0       -1.203699   -0.985159   -0.000000
      6          7           0       -0.000000    1.047554    0.000000
      7          7           0        2.271670    1.018994    0.000000
      8          8           0       -2.290717    0.994921   -0.000000
      9          1           0       -2.112424   -1.423553   -0.000000
     10          1           0        2.056960   -1.653675    0.000000
     11          1           0       -0.176634   -2.791533   -0.000000
     12          1           0        3.159550    0.551294    0.000000
     13          1           0        2.235310    2.025069    0.000000
 ---------------------------------------------------------------------

 SCF Done:  E(RCAM-B3LYP) =  -394.873838903     A.U. after   14 cycles

 The electronic state is 1-A'.
 Alpha  occ. eigenvalues --  -19.14767 -14.44577 -14.42100 -14.36827 -10.36854
 Alpha  occ. eigenvalues --  -10.35326 -10.32919 -10.26531  -1.13762  -1.06870
 Alpha  occ. eigenvalues --   -1.04118  -0.96568  -0.87844  -0.75478  -0.73983
 Alpha  occ. eigenvalues --   -0.65173  -0.65038  -0.61099  -0.57838  -0.53912
 Alpha  occ. eigenvalues --   -0.52563  -0.51251  -0.48342  -0.46145  -0.42525
 Alpha  occ. eigenvalues --   -0.34384  -0.32794  -0.32490  -0.29914
 Alpha virt. eigenvalues --   -0.00047   0.01107   0.02383   0.04271   0.04809
 Alpha virt. eigenvalues --    0.06760   0.07056   0.07347   0.09230   0.10501
 Alpha virt. eigenvalues --    0.10984   0.11570   0.11646   0.14492   0.14987

 Mulliken charges:
               1
     1  C   -0.146112
     2  C    0.251743
     3  C    0.030804
     4  C    0.129629
     5  N   -0.325927
     6  N   -0.306967
     7  N   -0.382266
     8  O   -0.380328
     9  H    0.312937
    10  H    0.130211
    11  H    0.149499
    12  H    0.252952
    13  H    0.283824
 Sum of Mulliken charges =  -0.00000

 Dipole moment (field-independent basis, Debye):
    X=              4.9158    Y=             -4.8558    Z=              0.0000  Tot=              6.9097
 Quadrupole moment (field-independent basis, Debye-Ang):
   XX=            -42.7189   YY=            -42.5570   ZZ=            -48.9876
   XY=             10.8310   XZ=             -0.0000   YZ=             -0.0000

  Exact polarizability:  99.574   0.801  74.973   0.000  -0.000  41.075
 Approx polarizability: 119.144  -1.239  86.646   0.000  -0.000  50.485

                      1                      2                      3
                     A"                     A"                     A"
 Frequencies --     75.7737               132.4135               201.2463
 Red. masses --      1.2625                 5.5405                 4.9741
 Frc consts  --      0.0043                 0.0572                 0.1187
 IR Inten    --    199.1999                 0.6604                17.0752

                      4                      5                      6
                     A'                     A"                     A"
 Frequencies --    363.5515               405.2834               539.7043
 Red. masses --      3.4389                 2.8247                 1.1040
 Frc consts  --      0.2678                 0.2734                 0.1895
 IR Inten    --      3.6179                20.7133                 5.3319

                      7                      8                      9
                     A'                     A'                     A'
 Frequencies --    540.6073               549.8305               585.1802
 Red. masses --      4.8066                 6.1227                 9.2453
 Frc consts  --      0.8277                 1.0906                 1.8653
 IR Inten    --      3.6767                 3.6929                 2.2798

                     10                     11                     12
                     A"                     A"                     A'
 Frequencies --    630.4667               734.2926               783.0980
 Red. masses --      1.1897                 1.7008                 7.6605
 Frc consts  --      0.2786                 0.5403                 2.7678
 IR Inten    --     70.8475                28.0916                 4.4126

                     13                     14                     15
                     A"                     A"                     A'
 Frequencies --    784.0777               796.3648               939.2371
 Red. masses --      3.0769                 6.9103                 2.8175
 Frc consts  --      1.1145                 2.5821                 1.4644
 IR Inten    --      2.2879                64.0449                 3.3571

                     16                     17                     18
                     A"                     A'                     A'
 Frequencies --    988.8476               998.6966              1103.2652
 Red. masses --      1.3086                 4.2940                 2.1435
 Frc consts  --      0.7539                 2.5234                 1.5372
 IR Inten    --      0.2264                 0.8776                37.1428

                     19                     20                     21
                     A'                     A'                     A'
 Frequencies --   1138.5854              1225.8368              1284.5687
 Red. masses --      1.4903                 1.2562                 5.2043
 Frc consts  --      1.1383                 1.1122                 5.0597
 IR Inten    --      4.0761                58.6632                30.9119

                     22                     23                     24
                     A'                     A'                     A'
 Frequencies --   1371.3510              1461.6981              1522.7348
 Red. masses --      1.8208                 2.4197                 2.6911
 Frc consts  --      2.0175                 3.0460                 3.6765
 IR Inten    --     53.3143                99.1094               127.6156

                     25                     26                     27
                     A'                     A'                     A'
 Frequencies --   1601.3508              1642.7878              1722.0513
 Red. masses --      5.1630                 1.4292                 5.8376
 Frc consts  --      7.8006                 2.2724                10.1995
 IR Inten    --    213.9491               235.7428               538.9154

                     28                     29                     30
                     A'                     A'                     A'
 Frequencies --   1806.8526              3217.0944              3243.2543
 Red. masses --      9.3091                 1.0917                 1.0985
 Frc consts  --     17.9063                 6.6573                 6.8076
 IR Inten    --    845.0754                 1.6955                 0.7723

                     31                     32                     33
                     A'                     A'                     A'
 Frequencies --   3632.8045              3649.6477              3768.2558
 Red. masses --      1.0459                 1.0790                 1.1056
 Frc consts  --      8.1325                 8.4676                 9.2496
 IR Inten    --    116.7933                83.6578                65.1228

 - Thermochemistry -
 -------------------
 Temperature   298.150 Kelvin.  Pressure   1.00000 Atm.
 Atom     1 has atomic number  6 and mass  12.00000

 Molecular mass:   111.04326 amu.
 Principal axes and moments of inertia in atomic units:
                           1         2         3
     Eigenvalues --   462.63394 885.903841348.53778
           X            0.99949  -0.03201   0.00000
           Y            0.03201   0.99949   0.00000
           Z           -0.00000   0.00000   1.00000
 This molecule is an asymmetric top.
 Rotational symmetry number  1.
 Warning -- assumption of classical behavior for rotation
           may cause significant error
 Rotational temperatures (Kelvin)      0.18722     0.09777     0.06423
 Rotational constants (GHZ):           3.90101     2.03718     1.33829
 Zero-point vibrational energy     259833.7 (Joules/Mol)
                                   62.10176 (Kcal/Mol)
 Warning -- explicit consideration of   9 degrees of freedom as
           vibrations may cause significant error
 Vibrational temperatures:    109.02   190.51   289.55   523.07   583.11
          (Kelvin)            776.51   777.81   791.08   841.94   907.10
                             1056.48  1126.70  1128.11  1145.79  1351.35
                             1422.73  1436.90  1587.35  1638.17  1763.71
                             1848.21  1973.07  2103.06  2190.88  2303.99
                             2363.61  2477.65  2599.66  4628.68  4666.32
                             5226.80  5251.03  5421.68

 Zero-point correction=                           0.098965 (Hartree/Particle)
 Thermal correction to Energy=                    0.105927
 Thermal correction to Enthalpy=                  0.106871
 Thermal correction to Gibbs Free Energy=         0.067461
 Sum of electronic and zero-point Energies=           -394.774873
 Sum of electronic and thermal Energies=              -394.767912
 Sum of electronic and thermal Enthalpies=            -394.766968
 Sum of electronic and thermal Free Energies=         -394.806378

                     E (Thermal)             CV                S
                      KCal/Mol        Cal/Mol-Kelvin    Cal/Mol-Kelvin
 Total                   66.470             25.478             82.944
 Electronic               0.000              0.000              0.000
 Translational            0.889              2.981             40.030
 Rotational               0.889              2.981             27.804
 Vibrational             64.693             19.517             15.110
 Vibration     1          0.599              1.965              3.997
 Vibration     2          0.613              1.921              2.911
 Vibration     3          0.638              1.838              2.122
 Vibration     4          0.737              1.547              1.107
 Vibration     5          0.770              1.459              0.943
 Vibration     6          0.895              1.162              0.566
 Vibration     7          0.896              1.160              0.564
 Vibration     8          0.905              1.140              0.545
 Vibration     9          0.942              1.063              0.476

 Optimization completed.
    -- Stationary point found.
 Normal termination of Gaussian 16 at Tue Nov 22 13:19:04 2022.
