 Gaussian 16, Revision B.01,
 Gaussian 16:  ES64L-G16RevB.01 20-Dec-2017

 -----------------------------------------
 #p freq cam-b3lyp/6-311+G(d,p) symm=loose
 -----------------------------------------

 -------
 Guanine
 -------
 Symbolic Z-matrix:
 Charge =  0 Multiplicity = 1

                         Standard orientation:
 ---------------------------------------------------------------------
 Center     Atomic      Atomic             Coordinates (Angstroms)
 Number     Number       Type             X           Y           Z
 ---------------------------------------------------------------------
      1          7           0        2.164547    0.729374    0.000000
      2          6           0        1.823669    2.066210    0.000000
      3          7           0        0.540931    2.253857    0.000000
      4          6           0       -0.000000    0.987621    0.000000
      5          6           0       -1.368570    0.557966    0.000000
      6          8           0       -2.400416    1.186125    0.000000
      7          7           0       -1.424157   -0.869681   -0.000000
      8          6           0       -0.356682   -1.723002   -0.000000
      9          7           0       -0.627528   -3.053172   -0.000000
     10          7           0        0.882076   -1.320799   -0.000000
     11          6           0        0.996160    0.028079    0.000000
     12          1           0        2.573196    2.842649    0.000000
     13          1           0       -2.367552   -1.232740   -0.000000
     14          1           0       -1.561780   -3.418613   -0.000000
     15          1           0        0.152003   -3.687334   -0.000000
     16          1           0        3.088910    0.328741    0.000000
 ---------------------------------------------------------------------

 SCF Done:  E(RCAM-B3LYP) =  -542.474400286     A.U. after   15 cycles

 The electronic state is 1-A'.
 Alpha  occ. eigenvalues --  -19.16614 -14.45293 -14.45013 -14.43540 -14.38994
 Alpha  occ. eigenvalues --  -14.38052 -10.39319 -10.36314 -10.32779 -10.31376
 Alpha  occ. eigenvalues --  -10.26657  -1.14916  -1.12237  -1.10375  -1.00995
 Alpha  occ. eigenvalues --   -1.00161  -0.96865  -0.85271  -0.76193  -0.74931
 Alpha  occ. eigenvalues --   -0.70673  -0.68978  -0.63300  -0.62973  -0.60183
 Alpha  occ. eigenvalues --   -0.56901  -0.56449  -0.53966  -0.51332  -0.50879
 Alpha  occ. eigenvalues --   -0.49620  -0.47377  -0.39399  -0.38793  -0.36130
 Alpha  occ. eigenvalues --   -0.35339  -0.34374  -0.33459  -0.27149
 Alpha virt. eigenvalues --    0.00442   0.02328   0.02980   0.03341   0.04376
 Alpha virt. eigenvalues --    0.05419   0.06288   0.06595   0.07556   0.08290
 Alpha virt. eigenvalues --    0.09530   0.09654   0.10170   0.11684   0.12431

 Mulliken charges:
               1
     1  N   -0.278819
     2  C    0.155525
     3  N   -0.203699
     4  C    0.171568
     5  C    0.083809
     6  O   -0.351245
     7  N   -0.380075
     8  C    0.396008
     9  N   -0.492493
    10  N   -0.266501
    11  C   -0.129807
    12  H    0.135689
    13  H    0.298127
    14  H    0.267701
    15  H    0.291563
    16  H    0.302650
 Sum of Mulliken charges =  -0.00000

 Dipole moment (field-independent basis, Debye):
    X=              3.0817    Y=             -6.2669    Z=             -0.0000  Tot=              6.9837
 Quadrupole moment (field-independent basis, Debye-Ang):
   XX=            -54.7553   YY=            -57.8781   ZZ=            -65.2131
   XY=             17.6686   XZ=              0.0000   YZ=             -0.0000

  Exact polarizability: 114.685  10.259 119.570   0.000   0.000  51.296
 Approx polarizability: 145.343   1.182 134.467   0.000   0.000  66.049

 ******    1 imaginary frequencies (negative Signs) ******

                      1                      2                      3
                     A"                     A"                     A"
 Frequencies --   -318.8349               137.6353               158.6606
 Red. masses --      1.2353                 6.2900                 6.8940
 Frc consts  --      0.0740                 0.0702                 0.1022
 IR Inten    --    191.8081                 3.8652                 2.5469

                      4                      5                      6
                     A"                     A'                     A'
 Frequencies --    196.9520               323.3665               341.4115
 Red. masses --      5.1906                 5.7749                 4.2361
 Frc consts  --      0.1186                 0.3558                 0.2909
 IR Inten    --     16.7554                 2.3171                 3.0910

                      7                      8                      9
                     A"                     A"                     A'
 Frequencies --    359.4706               410.8935               494.3529
 Red. masses --      6.8942                 1.0602                 8.8551
 Frc consts  --      0.5249                 0.1055                 1.2750
 IR Inten    --      4.2998                41.1930                 1.6158

                     10                     11                     12
                     A'                     A"                     A"
 Frequencies --    535.1207               550.3671               602.9653
 Red. masses --      6.1687                 1.2401                 1.2084
 Frc consts  --      1.0408                 0.2213                 0.2589
 IR Inten    --      0.3274               100.7018                82.6066

                     13                     14                     15
                     A'                     A"                     A'
 Frequencies --    637.1485               671.8125               674.6319
 Red. masses --      7.9332                 2.9459                 4.3853
 Frc consts  --      1.8975                 0.7834                 1.1759
 IR Inten    --     11.2705                 8.3623                19.9816

                     16                     17                     18
                     A"                     A"                     A"
 Frequencies --    713.3187               749.7960               797.7148
 Red. masses --      8.6757                 7.2713                10.0136
 Frc consts  --      2.6009                 2.4085                 3.7543
 IR Inten    --     20.6246                 0.0002                25.2084

                     19                     20                     21
                     A'                     A"                     A'
 Frequencies --    847.9652               853.4269               963.5816
 Red. masses --      7.2510                 1.4629                 7.2681
 Frc consts  --      3.0719                 0.6278                 3.9760
 IR Inten    --     10.0188                 9.3447                 7.7576

                     22                     23                     24
                     A'                     A'                     A'
 Frequencies --   1041.3826              1083.0355              1087.3523
 Red. masses --      1.9076                 1.6780                 3.9109
 Frc consts  --      1.2188                 1.1597                 2.7244
 IR Inten    --      4.4599                13.9237                20.6358

                     25                     26                     27
                     A'                     A'                     A'
 Frequencies --   1145.5996              1192.7470              1324.7966
 Red. masses --      4.1802                 2.8453                 1.9599
 Frc consts  --      3.2323                 2.3850                 2.0267
 IR Inten    --     34.9208                36.3837                 0.3029

                     28                     29                     30
                     A'                     A'                     A'
 Frequencies --   1351.1746              1380.3478              1409.6770
 Red. masses --      1.9120                 4.4106                 3.0520
 Frc consts  --      2.0566                 4.9513                 3.5733
 IR Inten    --     77.7354                12.8563                22.4267

                     31                     32                     33
                     A'                     A'                     A'
 Frequencies --   1465.8218              1549.3878              1585.8643
 Red. masses --      7.5347                 4.6066                 3.1303
 Frc consts  --      9.5385                 6.5156                 4.6383
 IR Inten    --     21.4964                 1.6543                53.5476

                     34                     35                     36
                     A'                     A'                     A'
 Frequencies --   1630.4601              1645.7046              1683.8005
 Red. masses --      1.9773                 6.1946                 3.2818
 Frc consts  --      3.0971                 9.8849                 5.4820
 IR Inten    --     67.3088               289.4452               827.0347

                     37                     38                     39
                     A'                     A'                     A'
 Frequencies --   1831.1675              3262.7042              3622.4566
 Red. masses --      9.9643                 1.0983                 1.0776
 Frc consts  --     19.6857                 6.8886                 8.3312
 IR Inten    --    827.1962                 0.2242                46.8134

                     40                     41                     42
                     A'                     A'                     A'
 Frequencies --   3651.9023              3678.0488              3779.3647
 Red. masses --      1.0458                 1.0817                 1.1067
 Frc consts  --      8.2176                 8.6220                 9.3139
 IR Inten    --    137.0122                97.5856                73.8363

 - Thermochemistry -
 -------------------
 Temperature   298.150 Kelvin.  Pressure   1.00000 Atm.
 Atom     1 has atomic number  7 and mass  14.00307

 Molecular mass:   151.04941 amu.
 Principal axes and moments of inertia in atomic units:
                           1         2         3
     Eigenvalues --   930.657991608.135522538.79351
           X            0.49394   0.86950   0.00000
           Y            0.86950  -0.49394   0.00000
           Z            0.00000   0.00000   1.00000
 This molecule is an asymmetric top.
 Rotational symmetry number  1.
 Warning -- assumption of classical behavior for rotation
           may cause significant error
 Rotational temperatures (Kelvin)      0.09307     0.05386     0.03412
 Rotational constants (GHZ):           1.93921     1.12226     0.71087
    1 imaginary frequencies ignored.
 Zero-point vibrational energy     307580.2 (Joules/Mol)
                                   73.51342 (Kcal/Mol)
 Warning -- explicit consideration of  11 degrees of freedom as
           vibrations may cause significant error
 Vibrational temperatures:    198.03   228.28   283.37   465.25   491.22
          (Kelvin)            517.20   591.18   711.26   769.92   791.86
                              867.53   916.71   966.59   970.64  1026.31
                             1078.79  1147.73  1220.03  1227.89  1386.38
                             1498.32  1558.25  1564.46  1648.26  1716.10
                             1906.09  1944.04  1986.01  2028.21  2108.99
                             2229.22  2281.71  2345.87  2367.80  2422.61
                             2634.64  4694.30  5211.91  5254.27  5291.89
                             5437.66

 Zero-point correction=                           0.117151 (Hartree/Particle)
 Thermal correction to Energy=                    0.125051
 Thermal correction to Enthalpy=                  0.125995
 Thermal correction to Gibbs Free Energy=         0.084314
 Sum of electronic and zero-point Energies=           -542.357249
 Sum of electronic and thermal Energies=              -542.349349
 Sum of electronic and thermal Enthalpies=            -542.348405
 Sum of electronic and thermal Free Energies=         -542.390086

                     E (Thermal)             CV                S
                      KCal/Mol        Cal/Mol-Kelvin    Cal/Mol-Kelvin
 Total                   78.471             31.115             87.724
 Electronic               0.000              0.000              0.000
 Translational            0.889              2.981             40.947
 Rotational               0.889              2.981             29.720
 Vibrational             76.693             25.154             17.057
 Vibration     1          0.614              1.916              2.836
 Vibration     2          0.621              1.893              2.566
 Vibration     3          0.636              1.844              2.161
 Vibration     4          0.708              1.629              1.293
 Vibration     5          0.721              1.593              1.206
 Vibration     6          0.734              1.556              1.124
 Vibration     7          0.775              1.447              0.923
 Vibration     8          0.850              1.263              0.672
 Vibration     9          0.890              1.172              0.576
 Vibration    10          0.906              1.139              0.543
 Vibration    11          0.961              1.026              0.445

 Optimization completed.
    -- Stationary point found.
 Normal termination of Gaussian 16 at Tue Nov 22 13:20:34 2022.
