 Gaussian 16, Revision B.01,
 Gaussian 16:  ES64L-G16RevB.01 20-Dec-2017

 -----------------------------------------
 #p freq cam-b3lyp/6-311+G(d,p) symm=loose
 -----------------------------------------

 -------
 Thymine
 -------
 Symbolic Z-matrix:
 Charge =  0 Multiplicity = 1

                         Standard orientation:
 ---------------------------------------------------------------------
 Center     Atomic      Atomic             Coordinates (Angstroms)
 Number     Number       Type             X           Y           Z
 ---------------------------------------------------------------------
      1          7           0        0.155734   -1.659062    0.000000
      2          6           0        1.356002   -0.978945    0.000000
      3          7           0        1.195950    0.391060    0.000000
      4          6           0       -0.000000    1.115359    0.000000
      5          6           0       -1.214288    0.295879    0.000000
      6          6           0       -1.073627   -1.037299    0.000000
      7          8           0        2.431070   -1.530595    0.000000
      8          8           0        0.017636    2.326209    0.000000
      9          1           0        0.230272   -2.664179    0.000000
     10          1           0        2.049840    0.933880    0.000000
     11          6           0       -2.533447    1.000264    0.000000
     12          1           0       -1.925029   -1.706110    0.000000
     13          1           0       -3.358140    0.286495    0.000000
     14          1           0       -2.628104    1.644735    0.876132
     15          1           0       -2.628104    1.644735   -0.876132
 ---------------------------------------------------------------------

 SCF Done:  E(RCAM-B3LYP) =  -454.074711543     A.U. after   15 cycles

 The electronic state is 1-A'.
 Alpha  occ. eigenvalues --  -19.18506 -19.18389 -14.46254 -14.44870 -10.40961
 Alpha  occ. eigenvalues --  -10.37656 -10.33047 -10.27865 -10.25540  -1.17874
 Alpha  occ. eigenvalues --   -1.14626  -1.07595  -1.02248  -0.91389  -0.80632
 Alpha  occ. eigenvalues --   -0.76868  -0.75140  -0.65566  -0.65174  -0.60221
 Alpha  occ. eigenvalues --   -0.57170  -0.55457  -0.52377  -0.51058  -0.50867
 Alpha  occ. eigenvalues --   -0.48264  -0.47949  -0.46529  -0.43743  -0.37633
 Alpha  occ. eigenvalues --   -0.36263  -0.34676  -0.31071
 Alpha virt. eigenvalues --   -0.00845   0.00927   0.03499   0.03649   0.04544
 Alpha virt. eigenvalues --    0.05658   0.06162   0.07298   0.07681   0.08723
 Alpha virt. eigenvalues --    0.09828   0.10048   0.10770   0.12155   0.13774

 Mulliken charges:
               1
     1  N   -0.393585
     2  C    0.416849
     3  N   -0.449668
     4  C    0.108923
     5  C    0.592095
     6  C   -0.297182
     7  O   -0.372486
     8  O   -0.335398
     9  H    0.334676
    10  H    0.347380
    11  C   -0.566122
    12  H    0.144178
    13  H    0.129683
    14  H    0.170329
    15  H    0.170329
 Sum of Mulliken charges =  -0.00000

 Dipole moment (field-independent basis, Debye):
    X=             -3.5246    Y=             -2.8845    Z=             -0.0000  Tot=              4.5544
 Quadrupole moment (field-independent basis, Debye-Ang):
   XX=            -55.0426   YY=            -56.7035   ZZ=            -52.9440
   XY=              8.5553   XZ=              0.0000   YZ=             -0.0000

  Exact polarizability:  88.829 -12.186  96.772  -0.000   0.000  45.574
 Approx polarizability:  94.946 -11.033 120.912  -0.000   0.000  57.485

                      1                      2                      3
                     A"                     A"                     A"
 Frequencies --    108.5770               147.3594               151.6440
 Red. masses --      4.9404                 3.6115                 1.2689
 Frc consts  --      0.0343                 0.0462                 0.0172
 IR Inten    --      0.0017                 1.1186                 0.0203

                      4                      5                      6
                     A'                     A"                     A'
 Frequencies --    280.1280               296.0279               396.8479
 Red. masses --      3.0759                 4.2125                11.1315
 Frc consts  --      0.1422                 0.2175                 1.0329
 IR Inten    --      2.7742                 0.2525                21.7574

                      7                      8                      9
                     A"                     A'                     A'
 Frequencies --    400.1156               466.3041               554.3559
 Red. masses --      2.9208                 6.5793                 7.9158
 Frc consts  --      0.2755                 0.8429                 1.4333
 IR Inten    --     20.9235                19.1234                 7.3016

                     10                     11                     12
                     A"                     A'                     A"
 Frequencies --    554.8476               615.3021               671.0283
 Red. masses --      1.1107                 4.9591                 1.1400
 Frc consts  --      0.2015                 1.1062                 0.3024
 IR Inten    --     62.2273                 1.2430                83.6424

                     13                     14                     15
                     A'                     A"                     A"
 Frequencies --    744.6052               773.5631               779.8878
 Red. masses --      5.6169                10.7116                 6.5849
 Frc consts  --      1.8349                 3.7765                 2.3597
 IR Inten    --      5.4610                37.6222                31.5628

                     16                     17                     18
                     A'                     A"                     A'
 Frequencies --    816.2598               928.4716               980.6945
 Red. masses --      5.9607                 1.3607                 2.3929
 Frc consts  --      2.3399                 0.6911                 1.3560
 IR Inten    --      5.1035                17.6684                11.9149

                     19                     20                     21
                     A'                     A"                     A'
 Frequencies --   1033.7506              1079.1455              1172.7219
 Red. masses --      1.7098                 1.4532                 2.5882
 Frc consts  --      1.0765                 0.9971                 2.0972
 IR Inten    --      2.7821                 1.2818                 5.9609

                     22                     23                     24
                     A'                     A'                     A'
 Frequencies --   1216.2715              1248.9031              1390.6017
 Red. masses --      1.8947                 4.2623                 1.8371
 Frc consts  --      1.6514                 3.9169                 2.0931
 IR Inten    --    163.6783                 6.9795                 8.4433

                     25                     26                     27
                     A'                     A'                     A'
 Frequencies --   1424.5588              1435.1168              1448.0939
 Red. masses --      1.6538                 1.3219                 3.3290
 Frc consts  --      1.9774                 1.6041                 4.1130
 IR Inten    --      3.1906                23.0458                91.8472

                     28                     29                     30
                     A"                     A'                     A'
 Frequencies --   1476.8131              1501.5437              1524.1819
 Red. masses --      1.0406                 1.0950                 2.9183
 Frc consts  --      1.3372                 1.4545                 3.9944
 IR Inten    --      9.2393                 2.1030               122.1733

                     31                     32                     33
                     A'                     A'                     A'
 Frequencies --   1740.4536              1797.5725              1836.2277
 Red. masses --      6.4482                 8.8540                 8.3467
 Frc consts  --     11.5083                16.8564                16.5814
 IR Inten    --     46.5210               773.2078               818.1922

                     34                     35                     36
                     A'                     A"                     A'
 Frequencies --   3060.4325              3120.4253              3138.3660
 Red. masses --      1.0356                 1.1014                 1.1038
 Frc consts  --      5.7149                 6.3185                 6.4053
 IR Inten    --     18.3567                 7.8619                12.0373

                     37                     38                     39
                     A'                     A'                     A'
 Frequencies --   3217.6724              3623.8157              3667.3271
 Red. masses --      1.0944                 1.0777                 1.0790
 Frc consts  --      6.6757                 8.3384                 8.5498
 IR Inten    --      3.5254                79.6575               118.4705

 - Thermochemistry -
 -------------------
 Temperature   298.150 Kelvin.  Pressure   1.00000 Atm.
 Atom     1 has atomic number  7 and mass  14.00307

 Molecular mass:   126.04293 amu.
 Principal axes and moments of inertia in atomic units:
                           1         2         3
     Eigenvalues --   559.665211279.418161828.03287
           X            0.78157   0.62381   0.00000
           Y           -0.62381   0.78157   0.00000
           Z            0.00000  -0.00000   1.00000
 This molecule is an asymmetric top.
 Rotational symmetry number  1.
 Warning -- assumption of classical behavior for rotation
           may cause significant error
 Rotational temperatures (Kelvin)      0.15476     0.06770     0.04738
 Rotational constants (GHZ):           3.22468     1.41060     0.98726
 Zero-point vibrational energy     303971.2 (Joules/Mol)
                                   72.65086 (Kcal/Mol)
 Warning -- explicit consideration of  11 degrees of freedom as
           vibrations may cause significant error
 Vibrational temperatures:    156.22   212.02   218.18   403.04   425.92
          (Kelvin)            570.98   575.68   670.91   797.59   798.30
                              885.28   965.46  1071.32  1112.98  1122.08
                             1174.42  1335.86  1411.00  1487.34  1552.65
                             1687.29  1749.94  1796.89  2000.77  2049.62
                             2064.81  2083.48  2124.80  2160.39  2192.96
                             2504.12  2586.31  2641.92  4403.28  4489.60
                             4515.41  4629.51  5213.86  5276.47

 Zero-point correction=                           0.115777 (Hartree/Particle)
 Thermal correction to Energy=                    0.123591
 Thermal correction to Enthalpy=                  0.124535
 Thermal correction to Gibbs Free Energy=         0.083330
 Sum of electronic and zero-point Energies=           -453.958935
 Sum of electronic and thermal Energies=              -453.951121
 Sum of electronic and thermal Enthalpies=            -453.950176
 Sum of electronic and thermal Free Energies=         -453.991382

                     E (Thermal)             CV                S
                      KCal/Mol        Cal/Mol-Kelvin    Cal/Mol-Kelvin
 Total                   77.554             29.057             86.724
 Electronic               0.000              0.000              0.000
 Translational            0.889              2.981             40.408
 Rotational               0.889              2.981             28.661
 Vibrational             75.777             23.095             17.655
 Vibration     1          0.606              1.942              3.294
 Vibration     2          0.617              1.906              2.706
 Vibration     3          0.619              1.901              2.651
 Vibration     4          0.680              1.710              1.533
 Vibration     5          0.690              1.681              1.439
 Vibration     6          0.763              1.477              0.974
 Vibration     7          0.766              1.470              0.962
 Vibration     8          0.824              1.325              0.748
 Vibration     9          0.910              1.130              0.535
 Vibration    10          0.910              1.129              0.534
 Vibration    11          0.975              1.000              0.424

 Optimization completed.
    -- Stationary point found.
 Normal termination of Gaussian 16 at Tue Nov 22 13:21:41 2022.
