 Gaussian 16, Revision B.01,
 Gaussian 16:  ES64L-G16RevB.01 20-Dec-2017

 -----------------------------------------
 #p freq cam-b3lyp/6-311+G(d,p) symm=loose
 -----------------------------------------

 ------
 Uracil
 ------
 Symbolic Z-matrix:
 Charge =  0 Multiplicity = 1

                         Standard orientation:
 ---------------------------------------------------------------------
 Center     Atomic      Atomic             Coordinates (Angstroms)
 Number     Number       Type             X           Y           Z
 ---------------------------------------------------------------------
      1          6           0       -1.228126    0.361792   -0.000000
      2          6           0        0.055301   -1.699731    0.000000
      3          6           0        1.234421   -1.064892    0.000000
      4          6           0        1.270349    0.391010    0.000000
      5          7           0       -0.000000    0.986691    0.000000
      6          1           0       -0.026226   -2.778731   -0.000000
      7          1           0        2.172556   -1.596879    0.000000
      8          8           0        2.266360    1.076564    0.000000
      9          8           0       -2.283652    0.947576   -0.000000
     10          7           0       -1.136964   -1.020466   -0.000000
     11          1           0       -2.019061   -1.508516   -0.000000
     12          1           0       -0.021863    1.998362   -0.000000
 ---------------------------------------------------------------------

 SCF Done:  E(RCAM-B3LYP) =  -414.770071949     A.U. after   14 cycles

 The electronic state is 1-A'.
 Alpha  occ. eigenvalues --  -19.19043 -19.18498 -14.46871 -14.45137 -10.41485
 Alpha  occ. eigenvalues --  -10.38058 -10.34157 -10.27386  -1.18339  -1.14825
 Alpha  occ. eigenvalues --   -1.08180  -1.02634  -0.89851  -0.78502  -0.75623
 Alpha  occ. eigenvalues --   -0.68760  -0.65063  -0.60693  -0.57377  -0.55833
 Alpha  occ. eigenvalues --   -0.53737  -0.50808  -0.50252  -0.49392  -0.45272
 Alpha  occ. eigenvalues --   -0.38102  -0.36552  -0.34867  -0.32450
 Alpha virt. eigenvalues --   -0.01305   0.00608   0.03659   0.04035   0.04196
 Alpha virt. eigenvalues --    0.05992   0.06585   0.07896   0.08357   0.09748
 Alpha virt. eigenvalues --    0.11110   0.11224   0.11836   0.14079   0.14519

 Mulliken charges:
               1
     1  C    0.406694
     2  C   -0.041604
     3  C    0.003469
     4  C    0.169654
     5  N   -0.438679
     6  H    0.160236
     7  H    0.162723
     8  O   -0.339754
     9  O   -0.368000
    10  N   -0.386992
    11  H    0.330830
    12  H    0.341423
 Sum of Mulliken charges =  -0.00000

 Dipole moment (field-independent basis, Debye):
    X=             -1.1346    Y=             -4.4796    Z=             -0.0000  Tot=              4.6210
 Quadrupole moment (field-independent basis, Debye-Ang):
   XX=            -59.1942   YY=            -38.5447   ZZ=            -46.7590
   XY=              1.6679   XZ=             -0.0000   YZ=              0.0000

  Exact polarizability:  88.725   3.534  68.961   0.000  -0.000  36.619
 Approx polarizability: 107.280   7.931  79.489   0.000  -0.000  45.255

                      1                      2                      3
                     A"                     A"                     A'
 Frequencies --    145.7316               163.8021               395.1831
 Red. masses --      9.3700                 6.0192                11.9970
 Frc consts  --      0.1172                 0.0952                 1.1039
 IR Inten    --      1.1365                 0.1994                23.2206

                      4                      5                      6
                     A"                     A'                     A'
 Frequencies --    398.9707               526.5897               550.8511
 Red. masses --      2.9313                 7.8388                 6.3679
 Frc consts  --      0.2749                 1.2807                 1.1385
 IR Inten    --     27.1694                20.9263                 7.0568

                      7                      8                      9
                     A"                     A'                     A"
 Frequencies --    562.7552               567.9647               673.5899
 Red. masses --      1.1369                 6.5874                 1.1464
 Frc consts  --      0.2121                 1.2520                 0.3065
 IR Inten    --     44.9674                 4.2642                90.1142

                     10                     11                     12
                     A"                     A"                     A'
 Frequencies --    735.9935               775.5791               781.8606
 Red. masses --      2.1101                 9.8520                 8.4235
 Frc consts  --      0.6734                 3.4916                 3.0339
 IR Inten    --      8.4165                56.5856                 3.8096

                     13                     14                     15
                     A"                     A'                     A"
 Frequencies --    825.8207               982.1410               995.0062
 Red. masses --      2.2388                 2.5304                 1.2838
 Frc consts  --      0.8996                 1.4381                 0.7489
 IR Inten    --     63.5989                10.1776                 0.3966

                     16                     17                     18
                     A'                     A'                     A'
 Frequencies --   1002.0680              1100.6623              1215.8164
 Red. masses --      5.7622                 1.8506                 1.5390
 Frc consts  --      3.4090                 1.3209                 1.3404
 IR Inten    --      7.2016                 7.8013               123.8148

                     19                     20                     21
                     A'                     A'                     A'
 Frequencies --   1242.6576              1404.1961              1430.3562
 Red. masses --      1.9392                 1.7959                 2.2286
 Frc consts  --      1.7643                 2.0864                 2.6864
 IR Inten    --      0.4104                27.8538                71.0851

                     22                     23                     24
                     A'                     A'                     A'
 Frequencies --   1436.8025              1523.6033              1710.1237
 Red. masses --      2.2757                 2.8876                 5.7818
 Frc consts  --      2.7680                 3.9494                 9.9626
 IR Inten    --     60.4126               122.9498                77.6118

                     25                     26                     27
                     A'                     A'                     A'
 Frequencies --   1811.3747              1840.5314              3225.7116
 Red. masses --      8.3301                 8.7011                 1.0932
 Frc consts  --     16.1034                17.3665                 6.7018
 IR Inten    --    944.8256               642.4220                 1.9069

                     28                     29                     30
                     A'                     A'                     A'
 Frequencies --   3264.9361              3622.9176              3664.9808
 Red. masses --      1.0973                 1.0777                 1.0791
 Frc consts  --      6.8916                 8.3346                 8.5403
 IR Inten    --      2.0915                80.2393               121.1477

 - Thermochemistry -
 -------------------
 Temperature   298.150 Kelvin.  Pressure   1.00000 Atm.
 Atom     1 has atomic number  6 and mass  12.00000

 Molecular mass:   112.02728 amu.
 Principal axes and moments of inertia in atomic units:
                           1         2         3
     Eigenvalues --   461.38550 887.266251348.65175
           X            0.99944  -0.03350   0.00000
           Y            0.03350   0.99944   0.00000
           Z           -0.00000   0.00000   1.00000
 This molecule is an asymmetric top.
 Rotational symmetry number  1.
 Warning -- assumption of classical behavior for rotation
           may cause significant error
 Rotational temperatures (Kelvin)      0.18773     0.09762     0.06422
 Rotational constants (GHZ):           3.91157     2.03405     1.33818
 Zero-point vibrational energy     230751.1 (Joules/Mol)
                                   55.15085 (Kcal/Mol)
 Warning -- explicit consideration of   8 degrees of freedom as
           vibrations may cause significant error
 Vibrational temperatures:    209.68   235.67   568.58   574.03   757.65
          (Kelvin)            792.55   809.68   817.17   969.15  1058.93
                             1115.89  1124.92  1188.17  1413.08  1431.59
                             1441.75  1583.61  1749.29  1787.91  2020.32
                             2057.96  2067.24  2192.13  2460.49  2606.16
                             2648.11  4641.08  4697.51  5212.57  5273.09

 Zero-point correction=                           0.087888 (Hartree/Particle)
 Thermal correction to Energy=                    0.094031
 Thermal correction to Enthalpy=                  0.094976
 Thermal correction to Gibbs Free Energy=         0.057468
 Sum of electronic and zero-point Energies=           -414.682183
 Sum of electronic and thermal Energies=              -414.676041
 Sum of electronic and thermal Enthalpies=            -414.675096
 Sum of electronic and thermal Free Energies=         -414.712604

                     E (Thermal)             CV                S
                      KCal/Mol        Cal/Mol-Kelvin    Cal/Mol-Kelvin
 Total                   59.006             23.126             78.941
 Electronic               0.000              0.000              0.000
 Translational            0.889              2.981             40.057
 Rotational               0.889              2.981             27.803
 Vibrational             57.228             17.164             11.081
 Vibration     1          0.617              1.907              2.727
 Vibration     2          0.623              1.887              2.505
 Vibration     3          0.762              1.480              0.981
 Vibration     4          0.765              1.472              0.966
 Vibration     5          0.882              1.191              0.595
 Vibration     6          0.906              1.138              0.542
 Vibration     7          0.918              1.112              0.518
 Vibration     8          0.924              1.101              0.508

 Optimization completed.
    -- Stationary point found.
 Normal termination of Gaussian 16 at Tue Nov 22 13:23:42 2022.
