 Gaussian 16, Revision B.01,
 Gaussian 16:  ES64L-G16RevB.01 20-Dec-2017

 ---------------------------------------------------------
 #p freq td=(nstates=10) cam-b3lyp/6-311+G(d,p) symm=loose
 ---------------------------------------------------------

 -------------
 Guanine TDDFT
 -------------
 Symbolic Z-matrix:
 Charge =  0 Multiplicity = 1

                         Standard orientation:
 ---------------------------------------------------------------------
 Center     Atomic      Atomic             Coordinates (Angstroms)
 Number     Number       Type             X           Y           Z
 ---------------------------------------------------------------------
      1          7           0        2.164547    0.729374    0.000000
      2          6           0        1.823669    2.066210    0.000000
      3          7           0        0.540931    2.253857    0.000000
      4          6           0       -0.000000    0.987621    0.000000
      5          6           0       -1.368570    0.557966    0.000000
      6          8           0       -2.400416    1.186125    0.000000
      7          7           0       -1.424157   -0.869681   -0.000000
      8          6           0       -0.356682   -1.723002   -0.000000
      9          7           0       -0.627528   -3.053172   -0.000000
     10          7           0        0.882076   -1.320799   -0.000000
     11          6           0        0.996160    0.028079    0.000000
     12          1           0        2.573196    2.842649    0.000000
     13          1           0       -2.367552   -1.232740   -0.000000
     14          1           0       -1.561780   -3.418613   -0.000000
     15          1           0        0.152003   -3.687334   -0.000000
     16          1           0        3.088910    0.328741    0.000000
 ---------------------------------------------------------------------

 SCF Done:  E(RCAM-B3LYP) =  -542.474400286     A.U. after   15 cycles

 Excitation energies and oscillator strengths:

 Excited State   1:      Singlet-A'     5.1847 eV  239.14 nm  f=0.1728  <S**2>=0.000
      36 -> 43        -0.10755
      39 -> 42         0.67929
 This state for optimization and/or second-order correction.
 Total Energy, E(TD-HF/TD-DFT) =  -542.283867793
 Copying the excited state density for this state as the 1-particle RhoCI density.

 Excited State   2:      Singlet-A"     5.2180 eV  237.61 nm  f=0.0027  <S**2>=0.000
      39 -> 40         0.66872
      39 -> 41         0.11857
      39 -> 45         0.10387

 Excited State   3:      Singlet-A"     5.6145 eV  220.83 nm  f=0.0002  <S**2>=0.000
      37 -> 42        -0.24925
      37 -> 43        -0.18401
      38 -> 42         0.47874
      38 -> 43         0.34358
      38 -> 48        -0.13240

 Excited State   4:      Singlet-A'     5.6337 eV  220.07 nm  f=0.3359  <S**2>=0.000
      36 -> 42         0.10141
      39 -> 43         0.68343

 Excited State   5:      Singlet-A"     5.6829 eV  218.17 nm  f=0.0045  <S**2>=0.000
      39 -> 40        -0.13099
      39 -> 41         0.66504
      39 -> 45         0.10621

 Excited State   6:      Singlet-A"     6.2990 eV  196.83 nm  f=0.0008  <S**2>=0.000
      35 -> 40         0.14305
      39 -> 44         0.56867
      39 -> 45         0.27301
      39 -> 46        -0.19460

 Excited State   7:      Singlet-A"     6.3603 eV  194.93 nm  f=0.0015  <S**2>=0.000
      39 -> 41        -0.12447
      39 -> 44        -0.36659
      39 -> 45         0.44522
      39 -> 46        -0.33256

 Excited State   8:      Singlet-A"     6.4027 eV  193.64 nm  f=0.0028  <S**2>=0.000
      33 -> 43        -0.10312
      37 -> 42         0.29935
      37 -> 43         0.45712
      37 -> 48         0.10404
      37 -> 52         0.11624
      38 -> 42         0.12426
      38 -> 43         0.30567
      38 -> 48         0.11553

 Excited State   9:      Singlet-A"     6.4853 eV  191.18 nm  f=0.0003  <S**2>=0.000
      33 -> 42         0.17877
      33 -> 43        -0.11578
      37 -> 42         0.46326
      37 -> 43        -0.19041
      38 -> 42         0.34801
      38 -> 43        -0.23644

 Excited State  10:      Singlet-A'     6.6293 eV  187.02 nm  f=0.0130  <S**2>=0.000
      39 -> 48         0.64816
      39 -> 52         0.18484

 The electronic state is 1-A'.
 Alpha  occ. eigenvalues --  -19.16614 -14.45293 -14.45013 -14.43540 -14.38994
 Alpha  occ. eigenvalues --  -14.38052 -10.39319 -10.36314 -10.32779 -10.31376
 Alpha  occ. eigenvalues --  -10.26657  -1.14916  -1.12237  -1.10375  -1.00995
 Alpha  occ. eigenvalues --   -1.00161  -0.96865  -0.85271  -0.76193  -0.74931
 Alpha  occ. eigenvalues --   -0.70673  -0.68978  -0.63300  -0.62973  -0.60183
 Alpha  occ. eigenvalues --   -0.56901  -0.56449  -0.53966  -0.51332  -0.50879
 Alpha  occ. eigenvalues --   -0.49620  -0.47377  -0.39399  -0.38793  -0.36130
 Alpha  occ. eigenvalues --   -0.35339  -0.34374  -0.33459  -0.27149
 Alpha virt. eigenvalues --    0.00442   0.02328   0.02980   0.03341   0.04376
 Alpha virt. eigenvalues --    0.05419   0.06288   0.06595   0.07556   0.08290
 Alpha virt. eigenvalues --    0.09530   0.09654   0.10170   0.11684   0.12431

 Mulliken charges:
               1
     1  N   -0.278819
     2  C    0.155525
     3  N   -0.203699
     4  C    0.171568
     5  C    0.083809
     6  O   -0.351245
     7  N   -0.380075
     8  C    0.396008
     9  N   -0.492493
    10  N   -0.266501
    11  C   -0.129807
    12  H    0.135689
    13  H    0.298127
    14  H    0.267701
    15  H    0.291563
    16  H    0.302650
 Sum of Mulliken charges =  -0.00000

 Dipole moment (field-independent basis, Debye):
    X=              3.0817    Y=             -6.2669    Z=             -0.0000  Tot=              6.9837
 Quadrupole moment (field-independent basis, Debye-Ang):
   XX=            -54.7553   YY=            -57.8781   ZZ=            -65.2131
   XY=             17.6686   XZ=              0.0000   YZ=             -0.0000

  Exact polarizability: 137.494  -0.609 196.063  -0.000  -0.000 197.549
 Approx polarizability: 145.343   1.182 134.467   0.000   0.000  66.049

 ******    5 imaginary frequencies (negative Signs) ******

                      1                      2                      3
                     A"                     A"                     A"
 Frequencies --  -1942.1949              -594.3507              -474.8694
 Red. masses --      3.3199                 1.5072                 1.2011
 Frc consts  --      7.3784                 0.3137                 0.1596
 IR Inten    --  16343.5853                17.6167                58.6609

                      4                      5                      6
                     A"                     A"                     A"
 Frequencies --   -194.7357               -80.7074                78.5475
 Red. masses --      5.7173                 8.5830                 6.6962
 Frc consts  --      0.1277                 0.0329                 0.0243
 IR Inten    --      0.2375                 4.7445                 2.4186

                      7                      8                      9
                     A"                     A'                     A"
 Frequencies --    207.2665               243.1358               245.0988
 Red. masses --      3.5006                 8.3116                 1.6766
 Frc consts  --      0.0886                 0.2895                 0.0593
 IR Inten    --     83.7614               198.8451                87.0402

                     10                     11                     12
                     A'                     A"                     A"
 Frequencies --    320.7726               337.6469               411.3449
 Red. masses --      3.4923                 1.1308                 4.2084
 Frc consts  --      0.2117                 0.0760                 0.4196
 IR Inten    --      3.4404                22.5438                64.4970

                     13                     14                     15
                     A'                     A'                     A"
 Frequencies --    466.9809               489.0065               543.9463
 Red. masses --      8.6388                 7.4693                 4.1191
 Frc consts  --      1.1099                 1.0523                 0.7181
 IR Inten    --     90.9632                67.1504                 0.2565

                     16                     17                     18
                     A"                     A'                     A'
 Frequencies --    590.6501               609.6067               644.1331
 Red. masses --      3.9707                 6.3310                 4.7035
 Frc consts  --      0.8162                 1.3862                 1.1498
 IR Inten    --     10.5715               107.4205                 9.8373

                     19                     20                     21
                     A'                     A'                     A"
 Frequencies --    749.0349               819.4963               863.2798
 Red. masses --      6.4774                 9.4545                 1.4983
 Frc consts  --      2.1412                 3.7409                 0.6579
 IR Inten    --   1105.6364               208.6478                 5.8029

                     22                     23                     24
                     A'                     A'                     A'
 Frequencies --    953.5826              1028.8110              1072.1082
 Red. masses --      7.6306                 2.0228                 1.8865
 Frc consts  --      4.0881                 1.2614                 1.2776
 IR Inten    --      1.8353                42.9560                38.0088

                     25                     26                     27
                     A'                     A'                     A'
 Frequencies --   1127.7752              1143.7758              1249.5437
 Red. masses --      2.9329                 4.9953                 1.9017
 Frc consts  --      2.1978                 3.8503                 1.7495
 IR Inten    --     31.3280                 2.0218               388.7823

                     28                     29                     30
                     A'                     A'                     A'
 Frequencies --   1345.0664              1362.3882              1411.4487
 Red. masses --      2.0856                 1.9323                 5.9871
 Frc consts  --      2.2232                 2.1131                 7.0275
 IR Inten    --    191.0965                 3.6539                37.0628

                     31                     32                     33
                     A'                     A'                     A'
 Frequencies --   1452.7612              1532.8485              1576.4342
 Red. masses --      4.0564                 3.3250                 3.3852
 Frc consts  --      5.0440                 4.6030                 4.9566
 IR Inten    --     17.0925               247.8070               349.6889

                     34                     35                     36
                     A'                     A'                     A'
 Frequencies --   1586.1198              1625.8490              1670.9450
 Red. masses --      3.8017                 2.6800                 2.9293
 Frc consts  --      5.6350                 4.1739                 4.8188
 IR Inten    --     75.5532               302.3747               190.6551

                     37                     38                     39
                     A'                     A'                     A'
 Frequencies --   1790.6960              3266.5323              3619.3269
 Red. masses --      8.7365                 1.0984                 1.0779
 Frc consts  --     16.5056                 6.9051                 8.3191
 IR Inten    --    295.5748                 0.5844                52.3677

                     40                     41                     42
                     A'                     A'                     A'
 Frequencies --   3651.2052              3675.0702              3782.1406
 Red. masses --      1.0456                 1.0803                 1.1065
 Frc consts  --      8.2127                 8.5969                 9.3256
 IR Inten    --    242.3251               166.5760                72.0093

 - Thermochemistry -
 -------------------
 Temperature   298.150 Kelvin.  Pressure   1.00000 Atm.
 Atom     1 has atomic number  7 and mass  14.00307

 Molecular mass:   151.04941 amu.
 Principal axes and moments of inertia in atomic units:
                           1         2         3
     Eigenvalues --   930.657991608.135522538.79351
           X            0.49394   0.86950   0.00000
           Y            0.86950  -0.49394   0.00000
           Z            0.00000   0.00000   1.00000
 This molecule is an asymmetric top.
 Rotational symmetry number  1.
 Warning -- assumption of classical behavior for rotation
           may cause significant error
 Rotational temperatures (Kelvin)      0.09307     0.05386     0.03412
 Rotational constants (GHZ):           1.93921     1.12226     0.71087
    5 imaginary frequencies ignored.
 Zero-point vibrational energy     284378.5 (Joules/Mol)
                                   67.96810 (Kcal/Mol)
 Warning -- explicit consideration of  12 degrees of freedom as
           vibrations may cause significant error
 Vibrational temperatures:    113.01   298.21   349.82   352.64   461.52
          (Kelvin)            485.80   591.83   671.88   703.57   782.62
                              849.81   877.09   926.76  1077.69  1179.07
                             1242.07  1371.99  1480.23  1542.52  1622.62
                             1645.64  1797.81  1935.25  1960.17  2030.76
                             2090.20  2205.43  2268.14  2282.07  2339.23
                             2404.12  2576.41  4699.81  5207.40  5253.27
                             5287.61  5441.66

 Zero-point correction=                           0.108314 (Hartree/Particle)
 Thermal correction to Energy=                    0.116104
 Thermal correction to Enthalpy=                  0.117048
 Thermal correction to Gibbs Free Energy=         0.075208
 Sum of electronic and zero-point Energies=           -542.175554
 Sum of electronic and thermal Energies=              -542.167764
 Sum of electronic and thermal Enthalpies=            -542.166820
 Sum of electronic and thermal Free Energies=         -542.208659

                     E (Thermal)             CV                S
                      KCal/Mol        Cal/Mol-Kelvin    Cal/Mol-Kelvin
 Total                   72.856             29.133             88.059
 Electronic               0.000              0.000              0.000
 Translational            0.889              2.981             40.947
 Rotational               0.889              2.981             29.720
 Vibrational             71.079             23.171             17.391
 Vibration     1          0.600              1.964              3.927
 Vibration     2          0.641              1.830              2.068
 Vibration     3          0.659              1.774              1.780
 Vibration     4          0.660              1.771              1.766
 Vibration     5          0.706              1.634              1.306
 Vibration     6          0.718              1.600              1.223
 Vibration     7          0.775              1.446              0.922
 Vibration     8          0.824              1.323              0.746
 Vibration     9          0.845              1.274              0.686
 Vibration    10          0.899              1.153              0.557
 Vibration    11          0.948              1.052              0.466
 Vibration    12          0.969              1.011              0.433

 Normal termination of Gaussian 16 at Tue Nov 22 13:52:44 2022.
