 Gaussian 16, Revision B.01,
 Gaussian 16:  ES64L-G16RevB.01 20-Dec-2017

 ---------------------------------------------------------
 #p freq td=(nstates=10) cam-b3lyp/6-311+G(d,p) symm=loose
 ---------------------------------------------------------

 -------------
 Thymine TDDFT
 -------------
 Symbolic Z-matrix:
 Charge =  0 Multiplicity = 1

                         Standard orientation:
 ---------------------------------------------------------------------
 Center     Atomic      Atomic             Coordinates (Angstroms)
 Number     Number       Type             X           Y           Z
 ---------------------------------------------------------------------
      1          7           0        0.155734   -1.659062    0.000000
      2          6           0        1.356002   -0.978945    0.000000
      3          7           0        1.195950    0.391060    0.000000
      4          6           0       -0.000000    1.115359    0.000000
      5          6           0       -1.214288    0.295879    0.000000
      6          6           0       -1.073627   -1.037299    0.000000
      7          8           0        2.431070   -1.530595    0.000000
      8          8           0        0.017636    2.326209    0.000000
      9          1           0        0.230272   -2.664179    0.000000
     10          1           0        2.049840    0.933880    0.000000
     11          6           0       -2.533447    1.000264    0.000000
     12          1           0       -1.925029   -1.706110    0.000000
     13          1           0       -3.358140    0.286495    0.000000
     14          1           0       -2.628104    1.644735    0.876132
     15          1           0       -2.628104    1.644735   -0.876132
 ---------------------------------------------------------------------

 SCF Done:  E(RCAM-B3LYP) =  -454.074711543     A.U. after   15 cycles

 Excitation energies and oscillator strengths:

 Excited State   1:      Singlet-A"     5.1426 eV  241.09 nm  f=0.0000  <S**2>=0.000
      30 -> 34        -0.18938
      32 -> 34         0.62803
      32 -> 38        -0.20909
 This state for optimization and/or second-order correction.
 Total Energy, E(TD-HF/TD-DFT) =  -453.885725639
 Copying the excited state density for this state as the 1-particle RhoCI density.

 Excited State   2:      Singlet-A'     5.3144 eV  233.30 nm  f=0.1912  <S**2>=0.000
      33 -> 34         0.69017

 Excited State   3:      Singlet-A"     5.9445 eV  208.57 nm  f=0.0006  <S**2>=0.000
      33 -> 35         0.69012

 Excited State   4:      Singlet-A"     6.4658 eV  191.76 nm  f=0.0000  <S**2>=0.000
      30 -> 34         0.25974
      30 -> 38         0.38301
      30 -> 39        -0.20254
      30 -> 52         0.11665
      32 -> 34         0.16494
      32 -> 38         0.39748
      32 -> 39        -0.17721

 Excited State   5:      Singlet-A'     6.6748 eV  185.75 nm  f=0.0547  <S**2>=0.000
      31 -> 34         0.68634

 Excited State   6:      Singlet-A'     6.7315 eV  184.19 nm  f=0.2185  <S**2>=0.000
      33 -> 38         0.66365
      33 -> 39        -0.18842

 Excited State   7:      Singlet-A"     6.7793 eV  182.89 nm  f=0.0013  <S**2>=0.000
      33 -> 36         0.27388
      33 -> 37         0.59719
      33 -> 41        -0.19371

 Excited State   8:      Singlet-A"     6.9269 eV  178.99 nm  f=0.0000  <S**2>=0.000
      33 -> 36         0.61027
      33 -> 37        -0.27521
      33 -> 40        -0.12310

 Excited State   9:      Singlet-A"     7.1731 eV  172.85 nm  f=0.0007  <S**2>=0.000
      30 -> 34         0.61444
      30 -> 38        -0.20747
      32 -> 34         0.14621
      32 -> 38        -0.19627

 Excited State  10:      Singlet-A'     7.3422 eV  168.86 nm  f=0.0103  <S**2>=0.000
      32 -> 35        -0.28799
      32 -> 37         0.29123
      33 -> 38         0.13451
      33 -> 39         0.52305

 The electronic state is 1-A'.
 Alpha  occ. eigenvalues --  -19.18506 -19.18389 -14.46254 -14.44870 -10.40961
 Alpha  occ. eigenvalues --  -10.37656 -10.33047 -10.27865 -10.25540  -1.17874
 Alpha  occ. eigenvalues --   -1.14626  -1.07595  -1.02248  -0.91389  -0.80632
 Alpha  occ. eigenvalues --   -0.76868  -0.75140  -0.65566  -0.65174  -0.60221
 Alpha  occ. eigenvalues --   -0.57170  -0.55457  -0.52377  -0.51058  -0.50867
 Alpha  occ. eigenvalues --   -0.48264  -0.47949  -0.46529  -0.43743  -0.37633
 Alpha  occ. eigenvalues --   -0.36263  -0.34676  -0.31071
 Alpha virt. eigenvalues --   -0.00845   0.00927   0.03499   0.03649   0.04544
 Alpha virt. eigenvalues --    0.05658   0.06162   0.07298   0.07681   0.08723
 Alpha virt. eigenvalues --    0.09828   0.10048   0.10770   0.12155   0.13774

 Mulliken charges:
               1
     1  N   -0.393585
     2  C    0.416849
     3  N   -0.449668
     4  C    0.108923
     5  C    0.592095
     6  C   -0.297182
     7  O   -0.372486
     8  O   -0.335398
     9  H    0.334676
    10  H    0.347380
    11  C   -0.566122
    12  H    0.144178
    13  H    0.129683
    14  H    0.170329
    15  H    0.170329
 Sum of Mulliken charges =  -0.00000

 Dipole moment (field-independent basis, Debye):
    X=             -3.5246    Y=             -2.8845    Z=             -0.0000  Tot=              4.5544
 Quadrupole moment (field-independent basis, Debye-Ang):
   XX=            -55.0426   YY=            -56.7035   ZZ=            -52.9440
   XY=              8.5553   XZ=              0.0000   YZ=             -0.0000

  Exact polarizability: 100.128  -7.611 101.549  -0.000  -0.000  49.039
 Approx polarizability:  94.946 -11.033 120.912  -0.000  -0.000  57.485

 ******    2 imaginary frequencies (negative Signs) ******

                      1                      2                      3
                     A"                     A"                     A"
 Frequencies --   -518.5192              -117.3937                62.2479
 Red. masses --      9.3800                 7.8957                 1.3260
 Frc consts  --      1.4859                 0.0641                 0.0030
 IR Inten    --      3.8826                 0.1753                 0.2273

                      4                      5                      6
                     A"                     A'                     A"
 Frequencies --    100.7224               109.2975               230.5328
 Red. masses --      3.4943                 7.6626                 3.3770
 Frc consts  --      0.0209                 0.0539                 0.1057
 IR Inten    --      1.3921                 6.8419                 1.3023

                      7                      8                      9
                     A'                     A"                     A"
 Frequencies --    307.6744               404.8197               432.6470
 Red. masses --      3.6683                 1.1071                 2.1020
 Frc consts  --      0.2046                 0.1069                 0.2318
 IR Inten    --      0.4572                 6.1117                14.9928

                     10                     11                     12
                     A'                     A"                     A'
 Frequencies --    456.0035               493.4099               505.0716
 Red. masses --      6.8484                 1.0589                 6.8726
 Frc consts  --      0.8390                 0.1519                 1.0329
 IR Inten    --     14.0596               131.8413                 8.1896

                     13                     14                     15
                     A'                     A"                     A'
 Frequencies --    565.5540               567.4949               710.2622
 Red. masses --      6.0063                 1.7272                 5.8425
 Frc consts  --      1.1319                 0.3277                 1.7366
 IR Inten    --      2.8315                48.7188                 8.5244

                     16                     17                     18
                     A"                     A'                     A'
 Frequencies --    742.5541               800.3117               935.9107
 Red. masses --      9.6151                 6.1638                 3.3577
 Frc consts  --      3.1236                 2.3260                 1.7328
 IR Inten    --     52.3156                 4.7349                47.0570

                     19                     20                     21
                     A'                     A"                     A'
 Frequencies --   1018.3835              1059.5969              1150.1615
 Red. masses --      1.8468                 1.3917                 2.7624
 Frc consts  --      1.1285                 0.9206                 2.1530
 IR Inten    --      5.6982                 0.0188                68.7469

                     22                     23                     24
                     A'                     A'                     A'
 Frequencies --   1194.4384              1239.2716              1273.9067
 Red. masses --      4.1547                 1.8959                 4.2873
 Frc consts  --      3.4924                 1.7155                 4.0993
 IR Inten    --      6.4838                44.2449                 0.5874

                     25                     26                     27
                     A'                     A'                     A'
 Frequencies --   1386.4494              1432.2022              1459.2497
 Red. masses --      1.8712                 1.3069                 1.3535
 Frc consts  --      2.1192                 1.5794                 1.6982
 IR Inten    --     42.2419                 1.9333                 1.5820

                     28                     29                     30
                     A"                     A'                     A'
 Frequencies --   1475.2772              1506.5132              1514.0127
 Red. masses --      1.0430                 1.2103                 1.6337
 Frc consts  --      1.3375                 1.6184                 2.2064
 IR Inten    --     13.6369                 5.0268                 5.3326

                     31                     32                     33
                     A'                     A'                     A'
 Frequencies --   1678.6261              1751.2862              1831.1132
 Red. masses --      7.5257                 9.2306                 8.1111
 Frc consts  --     12.4942                16.6800                16.0235
 IR Inten    --     66.6966               164.5657               627.3116

                     34                     35                     36
                     A'                     A"                     A'
 Frequencies --   3057.1071              3108.9453              3140.0968
 Red. masses --      1.0358                 1.1007                 1.1040
 Frc consts  --      5.7033                 6.2684                 6.4134
 IR Inten    --     24.1634                15.2656                 8.5446

                     37                     38                     39
                     A'                     A'                     A'
 Frequencies --   3211.0232              3619.7713              3666.8513
 Red. masses --      1.0912                 1.0770                 1.0785
 Frc consts  --      6.6288                 8.3144                 8.5439
 IR Inten    --      3.2443                86.8709                93.7516

 - Thermochemistry -
 -------------------
 Temperature   298.150 Kelvin.  Pressure   1.00000 Atm.
 Atom     1 has atomic number  7 and mass  14.00307

 Molecular mass:   126.04293 amu.
 Principal axes and moments of inertia in atomic units:
                           1         2         3
     Eigenvalues --   559.665211279.418161828.03287
           X            0.78157   0.62381   0.00000
           Y           -0.62381   0.78157   0.00000
           Z            0.00000  -0.00000   1.00000
 This molecule is an asymmetric top.
 Rotational symmetry number  1.
 Warning -- assumption of classical behavior for rotation
           may cause significant error
 Rotational temperatures (Kelvin)      0.15476     0.06770     0.04738
 Rotational constants (GHZ):           3.22468     1.41060     0.98726
    2 imaginary frequencies ignored.
 Zero-point vibrational energy     288292.8 (Joules/Mol)
                                   68.90364 (Kcal/Mol)
 Warning -- explicit consideration of  12 degrees of freedom as
           vibrations may cause significant error
 Vibrational temperatures:     89.56   144.92   157.25   331.69   442.67
          (Kelvin)            582.45   622.48   656.09   709.91   726.69
                              813.71   816.50  1021.91  1068.37  1151.47
                             1346.57  1465.23  1524.52  1654.83  1718.53
                             1783.04  1832.87  1994.79  2060.62  2099.53
                             2122.59  2167.54  2178.33  2415.17  2519.71
                             2634.56  4398.50  4473.08  4517.90  4619.95
                             5208.04  5275.78

 Zero-point correction=                           0.109805 (Hartree/Particle)
 Thermal correction to Energy=                    0.117972
 Thermal correction to Enthalpy=                  0.118916
 Thermal correction to Gibbs Free Energy=         0.076326
 Sum of electronic and zero-point Energies=           -453.775921
 Sum of electronic and thermal Energies=              -453.767754
 Sum of electronic and thermal Enthalpies=            -453.766810
 Sum of electronic and thermal Free Energies=         -453.809400

                     E (Thermal)             CV                S
                      KCal/Mol        Cal/Mol-Kelvin    Cal/Mol-Kelvin
 Total                   74.028             28.933             89.638
 Electronic               0.000              0.000              0.000
 Translational            0.889              2.981             40.408
 Rotational               0.889              2.981             28.661
 Vibrational             72.251             22.971             20.569
 Vibration     1          0.597              1.972              4.385
 Vibration     2          0.604              1.949              3.440
 Vibration     3          0.606              1.942              3.281
 Vibration     4          0.652              1.794              1.875
 Vibration     5          0.698              1.659              1.375
 Vibration     6          0.770              1.460              0.945
 Vibration     7          0.794              1.399              0.850
 Vibration     8          0.814              1.348              0.778
 Vibration     9          0.849              1.265              0.675
 Vibration    10          0.860              1.239              0.646
 Vibration    11          0.921              1.106              0.513
 Vibration    12          0.923              1.102              0.509

 Normal termination of Gaussian 16 at Tue Nov 22 13:54:45 2022.
