 Gaussian 16, Revision B.01,
 Gaussian 16:  ES64L-G16RevB.01 20-Dec-2017

 ----------------------------------------------------
 #p td=(nstates=10) cam-b3lyp/6-311+g(d,p) symm=loose
 ----------------------------------------------------

 ------------------
 Thymine distortion
 ------------------
 Symbolic Z-matrix:
 Charge =  0 Multiplicity = 1

                         Standard orientation:
 ---------------------------------------------------------------------
 Center     Atomic      Atomic             Coordinates (Angstroms)
 Number     Number       Type             X           Y           Z
 ---------------------------------------------------------------------
      1          7           0        1.121801   -1.231795   -0.039223
      2          6           0        1.665861    0.035649   -0.011197
      3          7           0        0.709451    1.029307    0.010139
      4          6           0       -0.680978    0.882345    0.006280
      5          6           0       -1.151873   -0.504509   -0.024329
      6          6           0       -0.233185   -1.480584   -0.045298
      7          8           0        2.855580    0.246909   -0.006021
      8          8           0       -1.399617    1.856811    0.027305
      9          1           0        1.789337   -1.986744   -0.055461
     10          1           0        1.060819    1.977929    0.031090
     11          6           0       -2.628345   -0.741857   -0.030209
     12          1           0       -0.105137   -2.168617    0.780782
     13          1           0       -2.853028   -1.808886   -0.053696
     14          1           0       -3.094075   -0.305337    0.855486
     15          1           0       -3.093271   -0.266945   -0.896358
 ---------------------------------------------------------------------

 SCF Done:  E(RCAM-B3LYP) =  -454.014309145     A.U. after   16 cycles

 Excitation energies and oscillator strengths:

 Excited State   1:      Singlet-A      4.3961 eV  282.03 nm  f=0.0979  <S**2>=0.000
      30 -> 34         0.11669
      32 -> 34        -0.31523
      33 -> 34         0.60450
 This state for optimization and/or second-order correction.
 Total Energy, E(TD-HF/TD-DFT) =  -453.852754627
 Copying the excited state density for this state as the 1-particle RhoCI density.

 Excited State   2:      Singlet-A      4.7736 eV  259.73 nm  f=0.0711  <S**2>=0.000
      30 -> 34        -0.19004
      32 -> 34         0.54509
      32 -> 38        -0.12695
      33 -> 34         0.34817

 Excited State   3:      Singlet-A      5.7382 eV  216.07 nm  f=0.0107  <S**2>=0.000
      30 -> 34         0.62903
      30 -> 38         0.11349
      32 -> 34         0.22311

 Excited State   4:      Singlet-A      5.9167 eV  209.55 nm  f=0.0265  <S**2>=0.000
      31 -> 34         0.68700
      33 -> 35        -0.11352

 Excited State   5:      Singlet-A      6.0004 eV  206.63 nm  f=0.0138  <S**2>=0.000
      31 -> 34         0.11746
      33 -> 35         0.67281

 Excited State   6:      Singlet-A      6.4733 eV  191.53 nm  f=0.0228  <S**2>=0.000
      29 -> 34        -0.20240
      30 -> 34        -0.13902
      30 -> 38         0.27639
      30 -> 39        -0.11378
      30 -> 49         0.10062
      32 -> 36        -0.11331
      32 -> 38         0.46604
      32 -> 39        -0.15836
      33 -> 38         0.14684

 Excited State   7:      Singlet-A      6.6145 eV  187.44 nm  f=0.1006  <S**2>=0.000
      29 -> 34         0.18548
      32 -> 34        -0.10730
      32 -> 38        -0.15141
      33 -> 36        -0.21601
      33 -> 38         0.58500
      33 -> 39        -0.12190

 Excited State   8:      Singlet-A      6.8837 eV  180.11 nm  f=0.0053  <S**2>=0.000
      33 -> 36         0.60975
      33 -> 38         0.21278
      33 -> 41        -0.19040

 Excited State   9:      Singlet-A      7.0367 eV  176.20 nm  f=0.0535  <S**2>=0.000
      29 -> 34         0.20989
      30 -> 38         0.49223
      30 -> 39        -0.14861
      32 -> 34        -0.15479
      32 -> 35         0.12034
      32 -> 38        -0.15940
      32 -> 49         0.10504
      33 -> 38        -0.19109

 Excited State  10:      Singlet-A      7.1162 eV  174.23 nm  f=0.0075  <S**2>=0.000
      33 -> 37         0.62666
      33 -> 39        -0.19247
      33 -> 40         0.12000

 The electronic state is 1-A.
 Alpha  occ. eigenvalues --  -19.18933 -19.18414 -14.45692 -14.45184 -10.40692
 Alpha  occ. eigenvalues --  -10.38141 -10.31974 -10.29039 -10.25823  -1.17930
 Alpha  occ. eigenvalues --   -1.15004  -1.07834  -1.02566  -0.91636  -0.81153
 Alpha  occ. eigenvalues --   -0.77176  -0.75267  -0.65647  -0.65237  -0.59587
 Alpha  occ. eigenvalues --   -0.57979  -0.54552  -0.52077  -0.51655  -0.51169
 Alpha  occ. eigenvalues --   -0.48882  -0.47515  -0.46748  -0.41979  -0.36802
 Alpha  occ. eigenvalues --   -0.36518  -0.35047  -0.31293
 Alpha virt. eigenvalues --   -0.04131   0.01191   0.03573   0.03875   0.04168
 Alpha virt. eigenvalues --    0.05214   0.06659   0.07136   0.07633   0.08605
 Alpha virt. eigenvalues --    0.09080   0.10116   0.10845   0.12255   0.13116

 Mulliken charges:
               1
     1  N   -0.371717
     2  C    0.404995
     3  N   -0.429859
     4  C    0.112502
     5  C    0.488944
     6  C   -0.218755
     7  O   -0.375447
     8  O   -0.331539
     9  H    0.335642
    10  H    0.349076
    11  C   -0.612284
    12  H    0.158964
    13  H    0.145939
    14  H    0.168628
    15  H    0.174911
 Sum of Mulliken charges =  -0.00000

 Dipole moment (field-independent basis, Debye):
    X=             -1.1048    Y=             -3.7549    Z=              0.4560  Tot=              3.9405
 Quadrupole moment (field-independent basis, Debye-Ang):
   XX=            -63.5752   YY=            -50.2639   ZZ=            -52.1185
   XY=              2.2591   XZ=              0.1468   YZ=             -1.4129

 Normal termination of Gaussian 16 at Tue Dec  6 19:00:43 2022.
