 Gaussian 16, Revision B.01,
 Gaussian 16:  ES64L-G16RevB.01 20-Dec-2017

 ----------------------------------------------------
 #p td=(nstates=10) cam-b3lyp/6-311+g(d,p) symm=loose
 ----------------------------------------------------

 ------------------
 Thymine distortion
 ------------------
 Symbolic Z-matrix:
 Charge =  0 Multiplicity = 1

                         Standard orientation:
 ---------------------------------------------------------------------
 Center     Atomic      Atomic             Coordinates (Angstroms)
 Number     Number       Type             X           Y           Z
 ---------------------------------------------------------------------
      1          7           0       -1.116050   -1.237387    0.007762
      2          6           0       -1.672100    0.025138    0.001584
      3          7           0       -0.725152    1.028035   -0.002734
      4          6           0        0.666607    0.894212   -0.001513
      5          6           0        1.150628   -0.488439    0.005200
      6          6           0        0.241233   -1.473392    0.009449
      7          8           0       -2.863769    0.225172    0.000136
      8          8           0        1.375977    1.875662   -0.005831
      9          1           0       -1.776400   -1.998796    0.011065
     10          1           0       -1.085497    1.973505   -0.007337
     11          6           0        2.629283   -0.711850    0.006879
     12          1           0        0.514134   -2.509700   -0.144773
     13          1           0        2.864071   -1.776948    0.011992
     14          1           0        3.090642   -0.255767   -0.871213
     15          1           0        3.089899   -0.247520    0.881032
 ---------------------------------------------------------------------

 SCF Done:  E(RCAM-B3LYP) =  -454.073543400     A.U. after   15 cycles

 Excitation energies and oscillator strengths:

 Excited State   1:      Singlet-A      5.1214 eV  242.09 nm  f=0.0062  <S**2>=0.000
      30 -> 34        -0.18666
      32 -> 34         0.61394
      32 -> 38        -0.20271
      33 -> 34        -0.14549
 This state for optimization and/or second-order correction.
 Total Energy, E(TD-HF/TD-DFT) =  -453.885335959
 Copying the excited state density for this state as the 1-particle RhoCI density.

 Excited State   2:      Singlet-A      5.2920 eV  234.29 nm  f=0.1838  <S**2>=0.000
      32 -> 34         0.13232
      33 -> 34         0.67496

 Excited State   3:      Singlet-A      5.9468 eV  208.49 nm  f=0.0009  <S**2>=0.000
      33 -> 35         0.68994

 Excited State   4:      Singlet-A      6.4589 eV  191.96 nm  f=0.0002  <S**2>=0.000
      30 -> 34         0.26945
      30 -> 38         0.37644
      30 -> 39        -0.20140
      30 -> 52        -0.11370
      32 -> 34         0.16694
      32 -> 38         0.39495
      32 -> 39        -0.17705

 Excited State   5:      Singlet-A      6.6490 eV  186.47 nm  f=0.0567  <S**2>=0.000
      31 -> 34         0.68922

 Excited State   6:      Singlet-A      6.7288 eV  184.26 nm  f=0.2072  <S**2>=0.000
      33 -> 37        -0.10887
      33 -> 38         0.65291
      33 -> 39        -0.18580

 Excited State   7:      Singlet-A      6.7854 eV  182.72 nm  f=0.0077  <S**2>=0.000
      33 -> 36         0.30978
      33 -> 37         0.56608
      33 -> 38         0.11990
      33 -> 41        -0.19224

 Excited State   8:      Singlet-A      6.9329 eV  178.83 nm  f=0.0002  <S**2>=0.000
      33 -> 36         0.58873
      33 -> 37        -0.31686
      33 -> 40        -0.12264

 Excited State   9:      Singlet-A      7.1418 eV  173.60 nm  f=0.0011  <S**2>=0.000
      30 -> 34         0.60850
      30 -> 38        -0.20955
      32 -> 34         0.14222
      32 -> 38        -0.20573

 Excited State  10:      Singlet-A      7.3410 eV  168.89 nm  f=0.0099  <S**2>=0.000
      32 -> 35        -0.26434
      32 -> 37         0.26799
      33 -> 38         0.14282
      33 -> 39         0.54304

 The electronic state is 1-A.
 Alpha  occ. eigenvalues --  -19.18498 -19.18406 -14.46222 -14.44876 -10.40949
 Alpha  occ. eigenvalues --  -10.37671 -10.33021 -10.27903 -10.25551  -1.17869
 Alpha  occ. eigenvalues --   -1.14638  -1.07588  -1.02251  -0.91398  -0.80642
 Alpha  occ. eigenvalues --   -0.76871  -0.75139  -0.65549  -0.65174  -0.60205
 Alpha  occ. eigenvalues --   -0.57193  -0.55432  -0.52368  -0.51087  -0.50869
 Alpha  occ. eigenvalues --   -0.48301  -0.47920  -0.46535  -0.43699  -0.37620
 Alpha  occ. eigenvalues --   -0.36269  -0.34688  -0.31077
 Alpha virt. eigenvalues --   -0.00962   0.00939   0.03507   0.03657   0.04539
 Alpha virt. eigenvalues --    0.05636   0.06187   0.07295   0.07680   0.08718
 Alpha virt. eigenvalues --    0.09797   0.10057   0.10777   0.12162   0.13752

 Mulliken charges:
               1
     1  N   -0.386174
     2  C    0.413403
     3  N   -0.446890
     4  C    0.106534
     5  C    0.595652
     6  C   -0.301795
     7  O   -0.373177
     8  O   -0.335760
     9  H    0.334432
    10  H    0.347565
    11  C   -0.570021
    12  H    0.145195
    13  H    0.130302
    14  H    0.169535
    15  H    0.171199
 Sum of Mulliken charges =  -0.00000

 Dipole moment (field-independent basis, Debye):
    X=              1.1091    Y=             -4.4010    Z=             -0.0836  Tot=              4.5394
 Quadrupole moment (field-independent basis, Debye-Ang):
   XX=            -63.8303   YY=            -47.9739   ZZ=            -52.9154
   XY=             -3.2226   XZ=             -0.0476   YZ=              0.3236

 Normal termination of Gaussian 16 at Wed Dec  7 15:31:26 2022.
